v testName tahoe3RED
+ 0.50504 2 3 tcp 40 ------- 1 1.0 3.1 0 0
- 0.50504 2 3 tcp 40 ------- 1 1.0 3.1 0 0
r 0.60544 2 3 tcp 40 ------- 1 1.0 3.1 0 0
+ 0.70584 2 1 ack 40 ------- 1 3.1 1.0 0 1
- 0.70584 2 1 ack 40 ------- 1 3.1 1.0 0 1
r 0.71088 2 1 ack 40 ------- 1 3.1 1.0 0 1
+ 0.71688 2 3 tcp 1000 ------- 1 1.0 3.1 1 2
- 0.71688 2 3 tcp 1000 ------- 1 1.0 3.1 1 2
+ 0.71788 2 3 tcp 1000 ------- 1 1.0 3.1 2 3
- 0.72688 2 3 tcp 1000 ------- 1 1.0 3.1 2 3
r 0.82688 2 3 tcp 1000 ------- 1 1.0 3.1 1 2
r 0.83688 2 3 tcp 1000 ------- 1 1.0 3.1 2 3
+ 0.92728 2 1 ack 40 ------- 1 3.1 1.0 1 4
- 0.92728 2 1 ack 40 ------- 1 3.1 1.0 1 4
r 0.93232 2 1 ack 40 ------- 1 3.1 1.0 1 4
+ 0.93728 2 1 ack 40 ------- 1 3.1 1.0 2 5
- 0.93728 2 1 ack 40 ------- 1 3.1 1.0 2 5
+ 0.93832 2 3 tcp 1000 ------- 1 1.0 3.1 3 6
- 0.93832 2 3 tcp 1000 ------- 1 1.0 3.1 3 6
+ 0.93932 2 3 tcp 1000 ------- 1 1.0 3.1 4 7
r 0.94232 2 1 ack 40 ------- 1 3.1 1.0 2 5
- 0.94832 2 3 tcp 1000 ------- 1 1.0 3.1 4 7
+ 0.94832 2 3 tcp 1000 ------- 1 1.0 3.1 5 8
+ 0.94932 2 3 tcp 1000 ------- 1 1.0 3.1 6 9
- 0.95832 2 3 tcp 1000 ------- 1 1.0 3.1 5 8
- 0.96832 2 3 tcp 1000 ------- 1 1.0 3.1 6 9
+ 1.00504 2 3 tcp 40 ------- 0 0.0 3.0 0 10
- 1.00504 2 3 tcp 40 ------- 0 0.0 3.0 0 10
r 1.04832 2 3 tcp 1000 ------- 1 1.0 3.1 3 6
r 1.05832 2 3 tcp 1000 ------- 1 1.0 3.1 4 7
r 1.06832 2 3 tcp 1000 ------- 1 1.0 3.1 5 8
r 1.07832 2 3 tcp 1000 ------- 1 1.0 3.1 6 9
r 1.10544 2 3 tcp 40 ------- 0 0.0 3.0 0 10
+ 1.14872 2 1 ack 40 ------- 1 3.1 1.0 3 11
- 1.14872 2 1 ack 40 ------- 1 3.1 1.0 3 11
r 1.15376 2 1 ack 40 ------- 1 3.1 1.0 3 11
+ 1.15872 2 1 ack 40 ------- 1 3.1 1.0 4 12
- 1.15872 2 1 ack 40 ------- 1 3.1 1.0 4 12
+ 1.15976 2 3 tcp 1000 ------- 1 1.0 3.1 7 16
- 1.15976 2 3 tcp 1000 ------- 1 1.0 3.1 7 16
+ 1.16076 2 3 tcp 1000 ------- 1 1.0 3.1 8 17
r 1.16376 2 1 ack 40 ------- 1 3.1 1.0 4 12
+ 1.16872 2 1 ack 40 ------- 1 3.1 1.0 5 13
- 1.16872 2 1 ack 40 ------- 1 3.1 1.0 5 13
- 1.16976 2 3 tcp 1000 ------- 1 1.0 3.1 8 17
+ 1.16976 2 3 tcp 1000 ------- 1 1.0 3.1 9 18
+ 1.17076 2 3 tcp 1000 ------- 1 1.0 3.1 10 19
r 1.17376 2 1 ack 40 ------- 1 3.1 1.0 5 13
+ 1.17872 2 1 ack 40 ------- 1 3.1 1.0 6 14
- 1.17872 2 1 ack 40 ------- 1 3.1 1.0 6 14
- 1.17976 2 3 tcp 1000 ------- 1 1.0 3.1 9 18
+ 1.17976 2 3 tcp 1000 ------- 1 1.0 3.1 11 20
+ 1.18076 2 3 tcp 1000 ------- 1 1.0 3.1 12 21
r 1.18376 2 1 ack 40 ------- 1 3.1 1.0 6 14
- 1.18976 2 3 tcp 1000 ------- 1 1.0 3.1 10 19
+ 1.18976 2 3 tcp 1000 ------- 1 1.0 3.1 13 22
+ 1.19076 2 3 tcp 1000 ------- 1 1.0 3.1 14 23
- 1.19976 2 3 tcp 1000 ------- 1 1.0 3.1 11 20
+ 1.20584 2 0 ack 40 ------- 0 3.0 0.0 0 15
- 1.20584 2 0 ack 40 ------- 0 3.0 0.0 0 15
- 1.20976 2 3 tcp 1000 ------- 1 1.0 3.1 12 21
r 1.21088 2 0 ack 40 ------- 0 3.0 0.0 0 15
+ 1.21688 2 3 tcp 1000 ------- 0 0.0 3.0 1 24
+ 1.21788 2 3 tcp 1000 ------- 0 0.0 3.0 2 25
- 1.21976 2 3 tcp 1000 ------- 1 1.0 3.1 13 22
- 1.22976 2 3 tcp 1000 ------- 1 1.0 3.1 14 23
- 1.23976 2 3 tcp 1000 ------- 0 0.0 3.0 1 24
- 1.24976 2 3 tcp 1000 ------- 0 0.0 3.0 2 25
r 1.26976 2 3 tcp 1000 ------- 1 1.0 3.1 7 16
r 1.27976 2 3 tcp 1000 ------- 1 1.0 3.1 8 17
r 1.28976 2 3 tcp 1000 ------- 1 1.0 3.1 9 18
r 1.29976 2 3 tcp 1000 ------- 1 1.0 3.1 10 19
r 1.30976 2 3 tcp 1000 ------- 1 1.0 3.1 11 20
r 1.31976 2 3 tcp 1000 ------- 1 1.0 3.1 12 21
r 1.32976 2 3 tcp 1000 ------- 1 1.0 3.1 13 22
r 1.33976 2 3 tcp 1000 ------- 1 1.0 3.1 14 23
r 1.34976 2 3 tcp 1000 ------- 0 0.0 3.0 1 24
r 1.35976 2 3 tcp 1000 ------- 0 0.0 3.0 2 25
+ 1.37016 2 1 ack 40 ------- 1 3.1 1.0 7 26
- 1.37016 2 1 ack 40 ------- 1 3.1 1.0 7 26
r 1.3752 2 1 ack 40 ------- 1 3.1 1.0 7 26
+ 1.38016 2 1 ack 40 ------- 1 3.1 1.0 8 27
- 1.38016 2 1 ack 40 ------- 1 3.1 1.0 8 27
+ 1.3812 2 3 tcp 1000 ------- 1 1.0 3.1 15 36
- 1.3812 2 3 tcp 1000 ------- 1 1.0 3.1 15 36
+ 1.3822 2 3 tcp 1000 ------- 1 1.0 3.1 16 37
r 1.3852 2 1 ack 40 ------- 1 3.1 1.0 8 27
+ 1.39016 2 1 ack 40 ------- 1 3.1 1.0 9 28
- 1.39016 2 1 ack 40 ------- 1 3.1 1.0 9 28
- 1.3912 2 3 tcp 1000 ------- 1 1.0 3.1 16 37
+ 1.3912 2 3 tcp 1000 ------- 1 1.0 3.1 17 38
+ 1.3922 2 3 tcp 1000 ------- 1 1.0 3.1 18 39
r 1.3952 2 1 ack 40 ------- 1 3.1 1.0 9 28
+ 1.40016 2 1 ack 40 ------- 1 3.1 1.0 10 29
- 1.40016 2 1 ack 40 ------- 1 3.1 1.0 10 29
- 1.4012 2 3 tcp 1000 ------- 1 1.0 3.1 17 38
+ 1.4012 2 3 tcp 1000 ------- 1 1.0 3.1 19 40
+ 1.4022 2 3 tcp 1000 ------- 1 1.0 3.1 20 41
r 1.4052 2 1 ack 40 ------- 1 3.1 1.0 10 29
+ 1.41016 2 1 ack 40 ------- 1 3.1 1.0 11 30
- 1.41016 2 1 ack 40 ------- 1 3.1 1.0 11 30
- 1.4112 2 3 tcp 1000 ------- 1 1.0 3.1 18 39
+ 1.4112 2 3 tcp 1000 ------- 1 1.0 3.1 21 42
+ 1.4122 2 3 tcp 1000 ------- 1 1.0 3.1 22 43
r 1.4152 2 1 ack 40 ------- 1 3.1 1.0 11 30
+ 1.42016 2 1 ack 40 ------- 1 3.1 1.0 12 31
- 1.42016 2 1 ack 40 ------- 1 3.1 1.0 12 31
- 1.4212 2 3 tcp 1000 ------- 1 1.0 3.1 19 40
+ 1.4212 2 3 tcp 1000 ------- 1 1.0 3.1 23 44
+ 1.4222 2 3 tcp 1000 ------- 1 1.0 3.1 24 45
r 1.4252 2 1 ack 40 ------- 1 3.1 1.0 12 31
+ 1.43016 2 1 ack 40 ------- 1 3.1 1.0 13 32
- 1.43016 2 1 ack 40 ------- 1 3.1 1.0 13 32
- 1.4312 2 3 tcp 1000 ------- 1 1.0 3.1 20 41
+ 1.4312 2 3 tcp 1000 ------- 1 1.0 3.1 25 46
+ 1.4322 2 3 tcp 1000 ------- 1 1.0 3.1 26 47
r 1.4352 2 1 ack 40 ------- 1 3.1 1.0 13 32
+ 1.44016 2 1 ack 40 ------- 1 3.1 1.0 14 33
- 1.44016 2 1 ack 40 ------- 1 3.1 1.0 14 33
- 1.4412 2 3 tcp 1000 ------- 1 1.0 3.1 21 42
+ 1.4412 2 3 tcp 1000 ------- 1 1.0 3.1 27 48
+ 1.4422 2 3 tcp 1000 ------- 1 1.0 3.1 28 49
r 1.4452 2 1 ack 40 ------- 1 3.1 1.0 14 33
+ 1.45016 2 0 ack 40 ------- 0 3.0 0.0 1 34
- 1.45016 2 0 ack 40 ------- 0 3.0 0.0 1 34
- 1.4512 2 3 tcp 1000 ------- 1 1.0 3.1 22 43
+ 1.4512 2 3 tcp 1000 ------- 1 1.0 3.1 29 50
+ 1.4522 2 3 tcp 1000 ------- 1 1.0 3.1 30 51
r 1.4552 2 0 ack 40 ------- 0 3.0 0.0 1 34
+ 1.46016 2 0 ack 40 ------- 0 3.0 0.0 2 35
- 1.46016 2 0 ack 40 ------- 0 3.0 0.0 2 35
- 1.4612 2 3 tcp 1000 ------- 1 1.0 3.1 23 44
+ 1.4612 2 3 tcp 1000 ------- 0 0.0 3.0 3 52
+ 1.4622 2 3 tcp 1000 ------- 0 0.0 3.0 4 53
d 1.4622 2 3 tcp 1000 ------- 0 0.0 3.0 4 53
r 1.4652 2 0 ack 40 ------- 0 3.0 0.0 2 35
- 1.4712 2 3 tcp 1000 ------- 1 1.0 3.1 24 45
+ 1.4712 2 3 tcp 1000 ------- 0 0.0 3.0 5 54
+ 1.4722 2 3 tcp 1000 ------- 0 0.0 3.0 6 55
d 1.4722 2 3 tcp 1000 ------- 0 0.0 3.0 6 55
- 1.4812 2 3 tcp 1000 ------- 1 1.0 3.1 25 46
r 1.4912 2 3 tcp 1000 ------- 1 1.0 3.1 15 36
- 1.4912 2 3 tcp 1000 ------- 1 1.0 3.1 26 47
r 1.5012 2 3 tcp 1000 ------- 1 1.0 3.1 16 37
- 1.5012 2 3 tcp 1000 ------- 1 1.0 3.1 27 48
r 1.5112 2 3 tcp 1000 ------- 1 1.0 3.1 17 38
- 1.5112 2 3 tcp 1000 ------- 1 1.0 3.1 28 49
r 1.5212 2 3 tcp 1000 ------- 1 1.0 3.1 18 39
- 1.5212 2 3 tcp 1000 ------- 1 1.0 3.1 29 50
r 1.5312 2 3 tcp 1000 ------- 1 1.0 3.1 19 40
- 1.5312 2 3 tcp 1000 ------- 1 1.0 3.1 30 51
r 1.5412 2 3 tcp 1000 ------- 1 1.0 3.1 20 41
- 1.5412 2 3 tcp 1000 ------- 0 0.0 3.0 3 52
r 1.5512 2 3 tcp 1000 ------- 1 1.0 3.1 21 42
- 1.5512 2 3 tcp 1000 ------- 0 0.0 3.0 5 54
r 1.5612 2 3 tcp 1000 ------- 1 1.0 3.1 22 43
r 1.5712 2 3 tcp 1000 ------- 1 1.0 3.1 23 44
r 1.5812 2 3 tcp 1000 ------- 1 1.0 3.1 24 45
r 1.5912 2 3 tcp 1000 ------- 1 1.0 3.1 25 46
+ 1.5916 2 1 ack 40 ------- 1 3.1 1.0 15 56
- 1.5916 2 1 ack 40 ------- 1 3.1 1.0 15 56
r 1.59664 2 1 ack 40 ------- 1 3.1 1.0 15 56
r 1.6012 2 3 tcp 1000 ------- 1 1.0 3.1 26 47
+ 1.6016 2 1 ack 40 ------- 1 3.1 1.0 16 57
- 1.6016 2 1 ack 40 ------- 1 3.1 1.0 16 57
+ 1.60264 2 3 tcp 1000 ------- 1 1.0 3.1 31 67
- 1.60264 2 3 tcp 1000 ------- 1 1.0 3.1 31 67
r 1.60664 2 1 ack 40 ------- 1 3.1 1.0 16 57
r 1.6112 2 3 tcp 1000 ------- 1 1.0 3.1 27 48
+ 1.6116 2 1 ack 40 ------- 1 3.1 1.0 17 58
- 1.6116 2 1 ack 40 ------- 1 3.1 1.0 17 58
+ 1.61264 2 3 tcp 1000 ------- 1 1.0 3.1 32 69
- 1.61264 2 3 tcp 1000 ------- 1 1.0 3.1 32 69
r 1.61664 2 1 ack 40 ------- 1 3.1 1.0 17 58
r 1.6212 2 3 tcp 1000 ------- 1 1.0 3.1 28 49
+ 1.6216 2 1 ack 40 ------- 1 3.1 1.0 18 59
- 1.6216 2 1 ack 40 ------- 1 3.1 1.0 18 59
+ 1.62264 2 3 tcp 1000 ------- 1 1.0 3.1 33 71
- 1.62264 2 3 tcp 1000 ------- 1 1.0 3.1 33 71
r 1.62664 2 1 ack 40 ------- 1 3.1 1.0 18 59
r 1.6312 2 3 tcp 1000 ------- 1 1.0 3.1 29 50
+ 1.6316 2 1 ack 40 ------- 1 3.1 1.0 19 60
- 1.6316 2 1 ack 40 ------- 1 3.1 1.0 19 60
+ 1.63264 2 3 tcp 1000 ------- 1 1.0 3.1 34 73
- 1.63264 2 3 tcp 1000 ------- 1 1.0 3.1 34 73
r 1.63664 2 1 ack 40 ------- 1 3.1 1.0 19 60
r 1.6412 2 3 tcp 1000 ------- 1 1.0 3.1 30 51
+ 1.6416 2 1 ack 40 ------- 1 3.1 1.0 20 61
- 1.6416 2 1 ack 40 ------- 1 3.1 1.0 20 61
+ 1.64264 2 3 tcp 1000 ------- 1 1.0 3.1 35 75
- 1.64264 2 3 tcp 1000 ------- 1 1.0 3.1 35 75
r 1.64664 2 1 ack 40 ------- 1 3.1 1.0 20 61
r 1.6512 2 3 tcp 1000 ------- 0 0.0 3.0 3 52
+ 1.6516 2 1 ack 40 ------- 1 3.1 1.0 21 62
- 1.6516 2 1 ack 40 ------- 1 3.1 1.0 21 62
+ 1.65264 2 3 tcp 1000 ------- 1 1.0 3.1 36 77
- 1.65264 2 3 tcp 1000 ------- 1 1.0 3.1 36 77
r 1.65664 2 1 ack 40 ------- 1 3.1 1.0 21 62
r 1.6612 2 3 tcp 1000 ------- 0 0.0 3.0 5 54
+ 1.6616 2 1 ack 40 ------- 1 3.1 1.0 22 63
- 1.6616 2 1 ack 40 ------- 1 3.1 1.0 22 63
+ 1.66264 2 3 tcp 1000 ------- 1 1.0 3.1 37 79
- 1.66264 2 3 tcp 1000 ------- 1 1.0 3.1 37 79
r 1.66664 2 1 ack 40 ------- 1 3.1 1.0 22 63
+ 1.6716 2 1 ack 40 ------- 1 3.1 1.0 23 64
- 1.6716 2 1 ack 40 ------- 1 3.1 1.0 23 64
+ 1.67264 2 3 tcp 1000 ------- 1 1.0 3.1 38 81
- 1.67264 2 3 tcp 1000 ------- 1 1.0 3.1 38 81
r 1.67664 2 1 ack 40 ------- 1 3.1 1.0 23 64
+ 1.6816 2 1 ack 40 ------- 1 3.1 1.0 24 65
- 1.6816 2 1 ack 40 ------- 1 3.1 1.0 24 65
+ 1.68264 2 3 tcp 1000 ------- 1 1.0 3.1 39 82
- 1.68264 2 3 tcp 1000 ------- 1 1.0 3.1 39 82
r 1.68664 2 1 ack 40 ------- 1 3.1 1.0 24 65
+ 1.6916 2 1 ack 40 ------- 1 3.1 1.0 25 66
- 1.6916 2 1 ack 40 ------- 1 3.1 1.0 25 66
+ 1.69264 2 3 tcp 1000 ------- 1 1.0 3.1 40 83
- 1.69264 2 3 tcp 1000 ------- 1 1.0 3.1 40 83
r 1.69664 2 1 ack 40 ------- 1 3.1 1.0 25 66
+ 1.7016 2 1 ack 40 ------- 1 3.1 1.0 26 68
- 1.7016 2 1 ack 40 ------- 1 3.1 1.0 26 68
+ 1.70264 2 3 tcp 1000 ------- 1 1.0 3.1 41 84
- 1.70264 2 3 tcp 1000 ------- 1 1.0 3.1 41 84
r 1.70664 2 1 ack 40 ------- 1 3.1 1.0 26 68
+ 1.7116 2 1 ack 40 ------- 1 3.1 1.0 27 70
- 1.7116 2 1 ack 40 ------- 1 3.1 1.0 27 70
r 1.71264 2 3 tcp 1000 ------- 1 1.0 3.1 31 67
+ 1.71264 2 3 tcp 1000 ------- 1 1.0 3.1 42 85
- 1.71264 2 3 tcp 1000 ------- 1 1.0 3.1 42 85
r 1.71664 2 1 ack 40 ------- 1 3.1 1.0 27 70
+ 1.7216 2 1 ack 40 ------- 1 3.1 1.0 28 72
- 1.7216 2 1 ack 40 ------- 1 3.1 1.0 28 72
r 1.72264 2 3 tcp 1000 ------- 1 1.0 3.1 32 69
+ 1.72264 2 3 tcp 1000 ------- 1 1.0 3.1 43 87
- 1.72264 2 3 tcp 1000 ------- 1 1.0 3.1 43 87
r 1.72664 2 1 ack 40 ------- 1 3.1 1.0 28 72
+ 1.7316 2 1 ack 40 ------- 1 3.1 1.0 29 74
- 1.7316 2 1 ack 40 ------- 1 3.1 1.0 29 74
r 1.73264 2 3 tcp 1000 ------- 1 1.0 3.1 33 71
+ 1.73264 2 3 tcp 1000 ------- 1 1.0 3.1 44 89
- 1.73264 2 3 tcp 1000 ------- 1 1.0 3.1 44 89
r 1.73664 2 1 ack 40 ------- 1 3.1 1.0 29 74
+ 1.7416 2 1 ack 40 ------- 1 3.1 1.0 30 76
- 1.7416 2 1 ack 40 ------- 1 3.1 1.0 30 76
r 1.74264 2 3 tcp 1000 ------- 1 1.0 3.1 34 73
+ 1.74264 2 3 tcp 1000 ------- 1 1.0 3.1 45 91
- 1.74264 2 3 tcp 1000 ------- 1 1.0 3.1 45 91
r 1.74664 2 1 ack 40 ------- 1 3.1 1.0 30 76
+ 1.7516 2 0 ack 40 ------- 0 3.0 0.0 3 78
- 1.7516 2 0 ack 40 ------- 0 3.0 0.0 3 78
r 1.75264 2 3 tcp 1000 ------- 1 1.0 3.1 35 75
+ 1.75264 2 3 tcp 1000 ------- 1 1.0 3.1 46 93
- 1.75264 2 3 tcp 1000 ------- 1 1.0 3.1 46 93
r 1.75664 2 0 ack 40 ------- 0 3.0 0.0 3 78
+ 1.7616 2 0 ack 40 ------- 0 3.0 0.0 3 80
- 1.7616 2 0 ack 40 ------- 0 3.0 0.0 3 80
r 1.76264 2 3 tcp 1000 ------- 1 1.0 3.1 36 77
+ 1.76264 2 3 tcp 1000 ------- 0 0.0 3.0 7 95
- 1.76264 2 3 tcp 1000 ------- 0 0.0 3.0 7 95
+ 1.76364 2 3 tcp 1000 ------- 0 0.0 3.0 8 96
r 1.76664 2 0 ack 40 ------- 0 3.0 0.0 3 80
r 1.77264 2 3 tcp 1000 ------- 1 1.0 3.1 37 79
- 1.77264 2 3 tcp 1000 ------- 0 0.0 3.0 8 96
r 1.78264 2 3 tcp 1000 ------- 1 1.0 3.1 38 81
r 1.79264 2 3 tcp 1000 ------- 1 1.0 3.1 39 82
r 1.80264 2 3 tcp 1000 ------- 1 1.0 3.1 40 83
r 1.81264 2 3 tcp 1000 ------- 1 1.0 3.1 41 84
+ 1.81304 2 1 ack 40 ------- 1 3.1 1.0 31 86
- 1.81304 2 1 ack 40 ------- 1 3.1 1.0 31 86
r 1.81808 2 1 ack 40 ------- 1 3.1 1.0 31 86
r 1.82264 2 3 tcp 1000 ------- 1 1.0 3.1 42 85
+ 1.82304 2 1 ack 40 ------- 1 3.1 1.0 32 88
- 1.82304 2 1 ack 40 ------- 1 3.1 1.0 32 88
+ 1.82408 2 3 tcp 1000 ------- 1 1.0 3.1 47 103
- 1.82408 2 3 tcp 1000 ------- 1 1.0 3.1 47 103
r 1.82808 2 1 ack 40 ------- 1 3.1 1.0 32 88
r 1.83264 2 3 tcp 1000 ------- 1 1.0 3.1 43 87
+ 1.83304 2 1 ack 40 ------- 1 3.1 1.0 33 90
- 1.83304 2 1 ack 40 ------- 1 3.1 1.0 33 90
+ 1.83408 2 3 tcp 1000 ------- 1 1.0 3.1 48 105
- 1.83408 2 3 tcp 1000 ------- 1 1.0 3.1 48 105
r 1.83808 2 1 ack 40 ------- 1 3.1 1.0 33 90
r 1.84264 2 3 tcp 1000 ------- 1 1.0 3.1 44 89
+ 1.84304 2 1 ack 40 ------- 1 3.1 1.0 34 92
- 1.84304 2 1 ack 40 ------- 1 3.1 1.0 34 92
+ 1.84408 2 3 tcp 1000 ------- 1 1.0 3.1 49 107
- 1.84408 2 3 tcp 1000 ------- 1 1.0 3.1 49 107
r 1.84808 2 1 ack 40 ------- 1 3.1 1.0 34 92
r 1.85264 2 3 tcp 1000 ------- 1 1.0 3.1 45 91
+ 1.85304 2 1 ack 40 ------- 1 3.1 1.0 35 94
- 1.85304 2 1 ack 40 ------- 1 3.1 1.0 35 94
+ 1.85408 2 3 tcp 1000 ------- 1 1.0 3.1 50 109
- 1.85408 2 3 tcp 1000 ------- 1 1.0 3.1 50 109
r 1.85808 2 1 ack 40 ------- 1 3.1 1.0 35 94
r 1.86264 2 3 tcp 1000 ------- 1 1.0 3.1 46 93
+ 1.86304 2 1 ack 40 ------- 1 3.1 1.0 36 97
- 1.86304 2 1 ack 40 ------- 1 3.1 1.0 36 97
+ 1.86408 2 3 tcp 1000 ------- 1 1.0 3.1 51 111
- 1.86408 2 3 tcp 1000 ------- 1 1.0 3.1 51 111
r 1.86808 2 1 ack 40 ------- 1 3.1 1.0 36 97
r 1.87264 2 3 tcp 1000 ------- 0 0.0 3.0 7 95
+ 1.87304 2 1 ack 40 ------- 1 3.1 1.0 37 98
- 1.87304 2 1 ack 40 ------- 1 3.1 1.0 37 98
+ 1.87408 2 3 tcp 1000 ------- 1 1.0 3.1 52 113
- 1.87408 2 3 tcp 1000 ------- 1 1.0 3.1 52 113
r 1.87808 2 1 ack 40 ------- 1 3.1 1.0 37 98
r 1.88264 2 3 tcp 1000 ------- 0 0.0 3.0 8 96
+ 1.88304 2 1 ack 40 ------- 1 3.1 1.0 38 99
- 1.88304 2 1 ack 40 ------- 1 3.1 1.0 38 99
+ 1.88408 2 3 tcp 1000 ------- 1 1.0 3.1 53 115
- 1.88408 2 3 tcp 1000 ------- 1 1.0 3.1 53 115
r 1.88808 2 1 ack 40 ------- 1 3.1 1.0 38 99
+ 1.89304 2 1 ack 40 ------- 1 3.1 1.0 39 100
- 1.89304 2 1 ack 40 ------- 1 3.1 1.0 39 100
+ 1.89408 2 3 tcp 1000 ------- 1 1.0 3.1 54 117
- 1.89408 2 3 tcp 1000 ------- 1 1.0 3.1 54 117
r 1.89808 2 1 ack 40 ------- 1 3.1 1.0 39 100
+ 1.90304 2 1 ack 40 ------- 1 3.1 1.0 40 101
- 1.90304 2 1 ack 40 ------- 1 3.1 1.0 40 101
+ 1.90408 2 3 tcp 1000 ------- 1 1.0 3.1 55 118
- 1.90408 2 3 tcp 1000 ------- 1 1.0 3.1 55 118
r 1.90808 2 1 ack 40 ------- 1 3.1 1.0 40 101
+ 1.91304 2 1 ack 40 ------- 1 3.1 1.0 41 102
- 1.91304 2 1 ack 40 ------- 1 3.1 1.0 41 102
+ 1.91408 2 3 tcp 1000 ------- 1 1.0 3.1 56 119
- 1.91408 2 3 tcp 1000 ------- 1 1.0 3.1 56 119
r 1.91808 2 1 ack 40 ------- 1 3.1 1.0 41 102
+ 1.92304 2 1 ack 40 ------- 1 3.1 1.0 42 104
- 1.92304 2 1 ack 40 ------- 1 3.1 1.0 42 104
+ 1.92408 2 3 tcp 1000 ------- 1 1.0 3.1 57 120
- 1.92408 2 3 tcp 1000 ------- 1 1.0 3.1 57 120
r 1.92808 2 1 ack 40 ------- 1 3.1 1.0 42 104
+ 1.93304 2 1 ack 40 ------- 1 3.1 1.0 43 106
- 1.93304 2 1 ack 40 ------- 1 3.1 1.0 43 106
r 1.93408 2 3 tcp 1000 ------- 1 1.0 3.1 47 103
+ 1.93408 2 3 tcp 1000 ------- 1 1.0 3.1 58 121
- 1.93408 2 3 tcp 1000 ------- 1 1.0 3.1 58 121
r 1.93808 2 1 ack 40 ------- 1 3.1 1.0 43 106
+ 1.94304 2 1 ack 40 ------- 1 3.1 1.0 44 108
- 1.94304 2 1 ack 40 ------- 1 3.1 1.0 44 108
r 1.94408 2 3 tcp 1000 ------- 1 1.0 3.1 48 105
+ 1.94408 2 3 tcp 1000 ------- 1 1.0 3.1 59 123
- 1.94408 2 3 tcp 1000 ------- 1 1.0 3.1 59 123
r 1.94808 2 1 ack 40 ------- 1 3.1 1.0 44 108
+ 1.95304 2 1 ack 40 ------- 1 3.1 1.0 45 110
- 1.95304 2 1 ack 40 ------- 1 3.1 1.0 45 110
r 1.95408 2 3 tcp 1000 ------- 1 1.0 3.1 49 107
+ 1.95408 2 3 tcp 1000 ------- 1 1.0 3.1 60 125
- 1.95408 2 3 tcp 1000 ------- 1 1.0 3.1 60 125
r 1.95808 2 1 ack 40 ------- 1 3.1 1.0 45 110
+ 1.96304 2 1 ack 40 ------- 1 3.1 1.0 46 112
- 1.96304 2 1 ack 40 ------- 1 3.1 1.0 46 112
r 1.96408 2 3 tcp 1000 ------- 1 1.0 3.1 50 109
+ 1.96408 2 3 tcp 1000 ------- 1 1.0 3.1 61 127
- 1.96408 2 3 tcp 1000 ------- 1 1.0 3.1 61 127
r 1.96808 2 1 ack 40 ------- 1 3.1 1.0 46 112
+ 1.97304 2 0 ack 40 ------- 0 3.0 0.0 3 114
- 1.97304 2 0 ack 40 ------- 0 3.0 0.0 3 114
r 1.97408 2 3 tcp 1000 ------- 1 1.0 3.1 51 111
+ 1.97408 2 3 tcp 1000 ------- 1 1.0 3.1 62 129
- 1.97408 2 3 tcp 1000 ------- 1 1.0 3.1 62 129
r 1.97808 2 0 ack 40 ------- 0 3.0 0.0 3 114
+ 1.98304 2 0 ack 40 ------- 0 3.0 0.0 3 116
- 1.98304 2 0 ack 40 ------- 0 3.0 0.0 3 116
r 1.98408 2 3 tcp 1000 ------- 1 1.0 3.1 52 113
r 1.98808 2 0 ack 40 ------- 0 3.0 0.0 3 116
r 1.99408 2 3 tcp 1000 ------- 1 1.0 3.1 53 115
+ 1.99408 2 3 tcp 1000 ---A--- 0 0.0 3.0 4 132
- 1.99408 2 3 tcp 1000 ---A--- 0 0.0 3.0 4 132
r 2.00408 2 3 tcp 1000 ------- 1 1.0 3.1 54 117
r 2.01408 2 3 tcp 1000 ------- 1 1.0 3.1 55 118
r 2.02408 2 3 tcp 1000 ------- 1 1.0 3.1 56 119
r 2.03408 2 3 tcp 1000 ------- 1 1.0 3.1 57 120
+ 2.03448 2 1 ack 40 ------- 1 3.1 1.0 47 122
- 2.03448 2 1 ack 40 ------- 1 3.1 1.0 47 122
r 2.03952 2 1 ack 40 ------- 1 3.1 1.0 47 122
r 2.04408 2 3 tcp 1000 ------- 1 1.0 3.1 58 121
+ 2.04448 2 1 ack 40 ------- 1 3.1 1.0 48 124
- 2.04448 2 1 ack 40 ------- 1 3.1 1.0 48 124
+ 2.04552 2 3 tcp 1000 ------- 1 1.0 3.1 63 138
- 2.04552 2 3 tcp 1000 ------- 1 1.0 3.1 63 138
r 2.04952 2 1 ack 40 ------- 1 3.1 1.0 48 124
r 2.05408 2 3 tcp 1000 ------- 1 1.0 3.1 59 123
+ 2.05448 2 1 ack 40 ------- 1 3.1 1.0 49 126
- 2.05448 2 1 ack 40 ------- 1 3.1 1.0 49 126
+ 2.05552 2 3 tcp 1000 ------- 1 1.0 3.1 64 140
- 2.05552 2 3 tcp 1000 ------- 1 1.0 3.1 64 140
r 2.05952 2 1 ack 40 ------- 1 3.1 1.0 49 126
r 2.06408 2 3 tcp 1000 ------- 1 1.0 3.1 60 125
+ 2.06448 2 1 ack 40 ------- 1 3.1 1.0 50 128
- 2.06448 2 1 ack 40 ------- 1 3.1 1.0 50 128
+ 2.06552 2 3 tcp 1000 ------- 1 1.0 3.1 65 142
- 2.06552 2 3 tcp 1000 ------- 1 1.0 3.1 65 142
r 2.06952 2 1 ack 40 ------- 1 3.1 1.0 50 128
r 2.07408 2 3 tcp 1000 ------- 1 1.0 3.1 61 127
+ 2.07448 2 1 ack 40 ------- 1 3.1 1.0 51 130
- 2.07448 2 1 ack 40 ------- 1 3.1 1.0 51 130
+ 2.07552 2 3 tcp 1000 ------- 1 1.0 3.1 66 144
- 2.07552 2 3 tcp 1000 ------- 1 1.0 3.1 66 144
r 2.07952 2 1 ack 40 ------- 1 3.1 1.0 51 130
r 2.08408 2 3 tcp 1000 ------- 1 1.0 3.1 62 129
+ 2.08448 2 1 ack 40 ------- 1 3.1 1.0 52 131
- 2.08448 2 1 ack 40 ------- 1 3.1 1.0 52 131
+ 2.08552 2 3 tcp 1000 ------- 1 1.0 3.1 67 146
- 2.08552 2 3 tcp 1000 ------- 1 1.0 3.1 67 146
r 2.08952 2 1 ack 40 ------- 1 3.1 1.0 52 131
+ 2.09448 2 1 ack 40 ------- 1 3.1 1.0 53 133
- 2.09448 2 1 ack 40 ------- 1 3.1 1.0 53 133
+ 2.09552 2 3 tcp 1000 ------- 1 1.0 3.1 68 148
- 2.09552 2 3 tcp 1000 ------- 1 1.0 3.1 68 148
r 2.09952 2 1 ack 40 ------- 1 3.1 1.0 53 133
r 2.10408 2 3 tcp 1000 ---A--- 0 0.0 3.0 4 132
+ 2.10448 2 1 ack 40 ------- 1 3.1 1.0 54 134
- 2.10448 2 1 ack 40 ------- 1 3.1 1.0 54 134
+ 2.10552 2 3 tcp 1000 ------- 1 1.0 3.1 69 149
- 2.10552 2 3 tcp 1000 ------- 1 1.0 3.1 69 149
r 2.10952 2 1 ack 40 ------- 1 3.1 1.0 54 134
+ 2.11448 2 1 ack 40 ------- 1 3.1 1.0 55 135
- 2.11448 2 1 ack 40 ------- 1 3.1 1.0 55 135
+ 2.11552 2 3 tcp 1000 ------- 1 1.0 3.1 70 151
- 2.11552 2 3 tcp 1000 ------- 1 1.0 3.1 70 151
r 2.11952 2 1 ack 40 ------- 1 3.1 1.0 55 135
+ 2.12448 2 1 ack 40 ------- 1 3.1 1.0 56 136
- 2.12448 2 1 ack 40 ------- 1 3.1 1.0 56 136
+ 2.12552 2 3 tcp 1000 ------- 1 1.0 3.1 71 152
- 2.12552 2 3 tcp 1000 ------- 1 1.0 3.1 71 152
r 2.12952 2 1 ack 40 ------- 1 3.1 1.0 56 136
+ 2.13448 2 1 ack 40 ------- 1 3.1 1.0 57 137
- 2.13448 2 1 ack 40 ------- 1 3.1 1.0 57 137
+ 2.13552 2 3 tcp 1000 ------- 1 1.0 3.1 72 153
- 2.13552 2 3 tcp 1000 ------- 1 1.0 3.1 72 153
r 2.13952 2 1 ack 40 ------- 1 3.1 1.0 57 137
+ 2.14448 2 1 ack 40 ------- 1 3.1 1.0 58 139
- 2.14448 2 1 ack 40 ------- 1 3.1 1.0 58 139
+ 2.14552 2 3 tcp 1000 ------- 1 1.0 3.1 73 154
- 2.14552 2 3 tcp 1000 ------- 1 1.0 3.1 73 154
r 2.14952 2 1 ack 40 ------- 1 3.1 1.0 58 139
+ 2.15448 2 1 ack 40 ------- 1 3.1 1.0 59 141
- 2.15448 2 1 ack 40 ------- 1 3.1 1.0 59 141
r 2.15552 2 3 tcp 1000 ------- 1 1.0 3.1 63 138
+ 2.15552 2 3 tcp 1000 ------- 1 1.0 3.1 74 155
- 2.15552 2 3 tcp 1000 ------- 1 1.0 3.1 74 155
r 2.15952 2 1 ack 40 ------- 1 3.1 1.0 59 141
+ 2.16448 2 1 ack 40 ------- 1 3.1 1.0 60 143
- 2.16448 2 1 ack 40 ------- 1 3.1 1.0 60 143
r 2.16552 2 3 tcp 1000 ------- 1 1.0 3.1 64 140
+ 2.16552 2 3 tcp 1000 ------- 1 1.0 3.1 75 157
- 2.16552 2 3 tcp 1000 ------- 1 1.0 3.1 75 157
r 2.16952 2 1 ack 40 ------- 1 3.1 1.0 60 143
+ 2.17448 2 1 ack 40 ------- 1 3.1 1.0 61 145
- 2.17448 2 1 ack 40 ------- 1 3.1 1.0 61 145
r 2.17552 2 3 tcp 1000 ------- 1 1.0 3.1 65 142
+ 2.17552 2 3 tcp 1000 ------- 1 1.0 3.1 76 159
- 2.17552 2 3 tcp 1000 ------- 1 1.0 3.1 76 159
r 2.17952 2 1 ack 40 ------- 1 3.1 1.0 61 145
+ 2.18448 2 1 ack 40 ------- 1 3.1 1.0 62 147
- 2.18448 2 1 ack 40 ------- 1 3.1 1.0 62 147
r 2.18552 2 3 tcp 1000 ------- 1 1.0 3.1 66 144
+ 2.18552 2 3 tcp 1000 ------- 1 1.0 3.1 77 161
- 2.18552 2 3 tcp 1000 ------- 1 1.0 3.1 77 161
r 2.18952 2 1 ack 40 ------- 1 3.1 1.0 62 147
r 2.19552 2 3 tcp 1000 ------- 1 1.0 3.1 67 146
+ 2.19552 2 3 tcp 1000 ------- 1 1.0 3.1 78 163
- 2.19552 2 3 tcp 1000 ------- 1 1.0 3.1 78 163
+ 2.20448 2 0 ack 40 ------- 0 3.0 0.0 5 150
- 2.20448 2 0 ack 40 ------- 0 3.0 0.0 5 150
r 2.20552 2 3 tcp 1000 ------- 1 1.0 3.1 68 148
r 2.20952 2 0 ack 40 ------- 0 3.0 0.0 5 150
r 2.21552 2 3 tcp 1000 ------- 1 1.0 3.1 69 149
+ 2.21552 2 3 tcp 1000 ------- 0 0.0 3.0 6 166
- 2.21552 2 3 tcp 1000 ------- 0 0.0 3.0 6 166
+ 2.21652 2 3 tcp 1000 ------- 0 0.0 3.0 7 167
r 2.22552 2 3 tcp 1000 ------- 1 1.0 3.1 70 151
- 2.22552 2 3 tcp 1000 ------- 0 0.0 3.0 7 167
r 2.23552 2 3 tcp 1000 ------- 1 1.0 3.1 71 152
r 2.24552 2 3 tcp 1000 ------- 1 1.0 3.1 72 153
r 2.25552 2 3 tcp 1000 ------- 1 1.0 3.1 73 154
+ 2.25592 2 1 ack 40 ------- 1 3.1 1.0 63 156
- 2.25592 2 1 ack 40 ------- 1 3.1 1.0 63 156
r 2.26096 2 1 ack 40 ------- 1 3.1 1.0 63 156
r 2.26552 2 3 tcp 1000 ------- 1 1.0 3.1 74 155
+ 2.26592 2 1 ack 40 ------- 1 3.1 1.0 64 158
- 2.26592 2 1 ack 40 ------- 1 3.1 1.0 64 158
+ 2.26696 2 3 tcp 1000 ------- 1 1.0 3.1 79 173
- 2.26696 2 3 tcp 1000 ------- 1 1.0 3.1 79 173
r 2.27096 2 1 ack 40 ------- 1 3.1 1.0 64 158
r 2.27552 2 3 tcp 1000 ------- 1 1.0 3.1 75 157
+ 2.27592 2 1 ack 40 ------- 1 3.1 1.0 65 160
- 2.27592 2 1 ack 40 ------- 1 3.1 1.0 65 160
+ 2.27696 2 3 tcp 1000 ------- 1 1.0 3.1 80 175
- 2.27696 2 3 tcp 1000 ------- 1 1.0 3.1 80 175
r 2.28096 2 1 ack 40 ------- 1 3.1 1.0 65 160
r 2.28552 2 3 tcp 1000 ------- 1 1.0 3.1 76 159
+ 2.28592 2 1 ack 40 ------- 1 3.1 1.0 66 162
- 2.28592 2 1 ack 40 ------- 1 3.1 1.0 66 162
+ 2.28696 2 3 tcp 1000 ------- 1 1.0 3.1 81 177
- 2.28696 2 3 tcp 1000 ------- 1 1.0 3.1 81 177
r 2.29096 2 1 ack 40 ------- 1 3.1 1.0 66 162
r 2.29552 2 3 tcp 1000 ------- 1 1.0 3.1 77 161
+ 2.29592 2 1 ack 40 ------- 1 3.1 1.0 67 164
- 2.29592 2 1 ack 40 ------- 1 3.1 1.0 67 164
+ 2.29696 2 3 tcp 1000 ------- 1 1.0 3.1 82 179
- 2.29696 2 3 tcp 1000 ------- 1 1.0 3.1 82 179
r 2.30096 2 1 ack 40 ------- 1 3.1 1.0 67 164
r 2.30552 2 3 tcp 1000 ------- 1 1.0 3.1 78 163
+ 2.30592 2 1 ack 40 ------- 1 3.1 1.0 68 165
- 2.30592 2 1 ack 40 ------- 1 3.1 1.0 68 165
+ 2.30696 2 3 tcp 1000 ------- 1 1.0 3.1 83 181
- 2.30696 2 3 tcp 1000 ------- 1 1.0 3.1 83 181
r 2.31096 2 1 ack 40 ------- 1 3.1 1.0 68 165
+ 2.31592 2 1 ack 40 ------- 1 3.1 1.0 69 168
- 2.31592 2 1 ack 40 ------- 1 3.1 1.0 69 168
+ 2.31696 2 3 tcp 1000 ------- 1 1.0 3.1 84 183
- 2.31696 2 3 tcp 1000 ------- 1 1.0 3.1 84 183
r 2.32096 2 1 ack 40 ------- 1 3.1 1.0 69 168
r 2.32552 2 3 tcp 1000 ------- 0 0.0 3.0 6 166
+ 2.32592 2 1 ack 40 ------- 1 3.1 1.0 70 169
- 2.32592 2 1 ack 40 ------- 1 3.1 1.0 70 169
+ 2.32696 2 3 tcp 1000 ------- 1 1.0 3.1 85 184
- 2.32696 2 3 tcp 1000 ------- 1 1.0 3.1 85 184
r 2.33096 2 1 ack 40 ------- 1 3.1 1.0 70 169
r 2.33552 2 3 tcp 1000 ------- 0 0.0 3.0 7 167
+ 2.33592 2 1 ack 40 ------- 1 3.1 1.0 71 170
- 2.33592 2 1 ack 40 ------- 1 3.1 1.0 71 170
+ 2.33696 2 3 tcp 1000 ------- 1 1.0 3.1 86 186
- 2.33696 2 3 tcp 1000 ------- 1 1.0 3.1 86 186
r 2.34096 2 1 ack 40 ------- 1 3.1 1.0 71 170
+ 2.34592 2 1 ack 40 ------- 1 3.1 1.0 72 171
- 2.34592 2 1 ack 40 ------- 1 3.1 1.0 72 171
+ 2.34696 2 3 tcp 1000 ------- 1 1.0 3.1 87 188
- 2.34696 2 3 tcp 1000 ------- 1 1.0 3.1 87 188
r 2.35096 2 1 ack 40 ------- 1 3.1 1.0 72 171
+ 2.35592 2 1 ack 40 ------- 1 3.1 1.0 73 172
- 2.35592 2 1 ack 40 ------- 1 3.1 1.0 73 172
+ 2.35696 2 3 tcp 1000 ------- 1 1.0 3.1 88 189
- 2.35696 2 3 tcp 1000 ------- 1 1.0 3.1 88 189
r 2.36096 2 1 ack 40 ------- 1 3.1 1.0 73 172
+ 2.36592 2 1 ack 40 ------- 1 3.1 1.0 74 174
- 2.36592 2 1 ack 40 ------- 1 3.1 1.0 74 174
+ 2.36696 2 3 tcp 1000 ------- 1 1.0 3.1 89 190
- 2.36696 2 3 tcp 1000 ------- 1 1.0 3.1 89 190
r 2.37096 2 1 ack 40 ------- 1 3.1 1.0 74 174
+ 2.37592 2 1 ack 40 ------- 1 3.1 1.0 75 176
- 2.37592 2 1 ack 40 ------- 1 3.1 1.0 75 176
r 2.37696 2 3 tcp 1000 ------- 1 1.0 3.1 79 173
+ 2.37696 2 3 tcp 1000 ------- 1 1.0 3.1 90 191
- 2.37696 2 3 tcp 1000 ------- 1 1.0 3.1 90 191
r 2.38096 2 1 ack 40 ------- 1 3.1 1.0 75 176
+ 2.38592 2 1 ack 40 ------- 1 3.1 1.0 76 178
- 2.38592 2 1 ack 40 ------- 1 3.1 1.0 76 178
r 2.38696 2 3 tcp 1000 ------- 1 1.0 3.1 80 175
+ 2.38696 2 3 tcp 1000 ------- 1 1.0 3.1 91 193
- 2.38696 2 3 tcp 1000 ------- 1 1.0 3.1 91 193
r 2.39096 2 1 ack 40 ------- 1 3.1 1.0 76 178
+ 2.39592 2 1 ack 40 ------- 1 3.1 1.0 77 180
- 2.39592 2 1 ack 40 ------- 1 3.1 1.0 77 180
r 2.39696 2 3 tcp 1000 ------- 1 1.0 3.1 81 177
+ 2.39696 2 3 tcp 1000 ------- 1 1.0 3.1 92 195
- 2.39696 2 3 tcp 1000 ------- 1 1.0 3.1 92 195
r 2.40096 2 1 ack 40 ------- 1 3.1 1.0 77 180
+ 2.40592 2 1 ack 40 ------- 1 3.1 1.0 78 182
- 2.40592 2 1 ack 40 ------- 1 3.1 1.0 78 182
r 2.40696 2 3 tcp 1000 ------- 1 1.0 3.1 82 179
+ 2.40696 2 3 tcp 1000 ------- 1 1.0 3.1 93 197
- 2.40696 2 3 tcp 1000 ------- 1 1.0 3.1 93 197
r 2.41096 2 1 ack 40 ------- 1 3.1 1.0 78 182
r 2.41696 2 3 tcp 1000 ------- 1 1.0 3.1 83 181
+ 2.41696 2 3 tcp 1000 ------- 1 1.0 3.1 94 199
- 2.41696 2 3 tcp 1000 ------- 1 1.0 3.1 94 199
+ 2.42592 2 0 ack 40 ------- 0 3.0 0.0 8 185
- 2.42592 2 0 ack 40 ------- 0 3.0 0.0 8 185
r 2.42696 2 3 tcp 1000 ------- 1 1.0 3.1 84 183
r 2.43096 2 0 ack 40 ------- 0 3.0 0.0 8 185
+ 2.43592 2 0 ack 40 ------- 0 3.0 0.0 8 187
- 2.43592 2 0 ack 40 ------- 0 3.0 0.0 8 187
r 2.43696 2 3 tcp 1000 ------- 1 1.0 3.1 85 184
+ 2.43696 2 3 tcp 1000 ------- 0 0.0 3.0 9 202
- 2.43696 2 3 tcp 1000 ------- 0 0.0 3.0 9 202
+ 2.43796 2 3 tcp 1000 ------- 0 0.0 3.0 10 203
r 2.44096 2 0 ack 40 ------- 0 3.0 0.0 8 187
r 2.44696 2 3 tcp 1000 ------- 1 1.0 3.1 86 186
- 2.44696 2 3 tcp 1000 ------- 0 0.0 3.0 10 203
r 2.45696 2 3 tcp 1000 ------- 1 1.0 3.1 87 188
r 2.46696 2 3 tcp 1000 ------- 1 1.0 3.1 88 189
r 2.47696 2 3 tcp 1000 ------- 1 1.0 3.1 89 190
+ 2.47736 2 1 ack 40 ------- 1 3.1 1.0 79 192
- 2.47736 2 1 ack 40 ------- 1 3.1 1.0 79 192
r 2.4824 2 1 ack 40 ------- 1 3.1 1.0 79 192
r 2.48696 2 3 tcp 1000 ------- 1 1.0 3.1 90 191
+ 2.48736 2 1 ack 40 ------- 1 3.1 1.0 80 194
- 2.48736 2 1 ack 40 ------- 1 3.1 1.0 80 194
+ 2.4884 2 3 tcp 1000 ------- 1 1.0 3.1 95 209
- 2.4884 2 3 tcp 1000 ------- 1 1.0 3.1 95 209
r 2.4924 2 1 ack 40 ------- 1 3.1 1.0 80 194
r 2.49696 2 3 tcp 1000 ------- 1 1.0 3.1 91 193
+ 2.49736 2 1 ack 40 ------- 1 3.1 1.0 81 196
- 2.49736 2 1 ack 40 ------- 1 3.1 1.0 81 196
+ 2.4984 2 3 tcp 1000 ------- 1 1.0 3.1 96 211
- 2.4984 2 3 tcp 1000 ------- 1 1.0 3.1 96 211
r 2.5024 2 1 ack 40 ------- 1 3.1 1.0 81 196
r 2.50696 2 3 tcp 1000 ------- 1 1.0 3.1 92 195
+ 2.50736 2 1 ack 40 ------- 1 3.1 1.0 82 198
- 2.50736 2 1 ack 40 ------- 1 3.1 1.0 82 198
+ 2.5084 2 3 tcp 1000 ------- 1 1.0 3.1 97 213
- 2.5084 2 3 tcp 1000 ------- 1 1.0 3.1 97 213
r 2.5124 2 1 ack 40 ------- 1 3.1 1.0 82 198
r 2.51696 2 3 tcp 1000 ------- 1 1.0 3.1 93 197
+ 2.51736 2 1 ack 40 ------- 1 3.1 1.0 83 200
- 2.51736 2 1 ack 40 ------- 1 3.1 1.0 83 200
+ 2.5184 2 3 tcp 1000 ------- 1 1.0 3.1 98 215
- 2.5184 2 3 tcp 1000 ------- 1 1.0 3.1 98 215
r 2.5224 2 1 ack 40 ------- 1 3.1 1.0 83 200
r 2.52696 2 3 tcp 1000 ------- 1 1.0 3.1 94 199
+ 2.52736 2 1 ack 40 ------- 1 3.1 1.0 84 201
- 2.52736 2 1 ack 40 ------- 1 3.1 1.0 84 201
+ 2.5284 2 3 tcp 1000 ------- 1 1.0 3.1 99 217
- 2.5284 2 3 tcp 1000 ------- 1 1.0 3.1 99 217
r 2.5324 2 1 ack 40 ------- 1 3.1 1.0 84 201
+ 2.53736 2 1 ack 40 ------- 1 3.1 1.0 85 204
- 2.53736 2 1 ack 40 ------- 1 3.1 1.0 85 204
+ 2.5384 2 3 tcp 1000 ------- 1 1.0 3.1 100 219
- 2.5384 2 3 tcp 1000 ------- 1 1.0 3.1 100 219
r 2.5424 2 1 ack 40 ------- 1 3.1 1.0 85 204
r 2.54696 2 3 tcp 1000 ------- 0 0.0 3.0 9 202
+ 2.54736 2 1 ack 40 ------- 1 3.1 1.0 86 205
- 2.54736 2 1 ack 40 ------- 1 3.1 1.0 86 205
+ 2.5484 2 3 tcp 1000 ------- 1 1.0 3.1 101 220
- 2.5484 2 3 tcp 1000 ------- 1 1.0 3.1 101 220
r 2.5524 2 1 ack 40 ------- 1 3.1 1.0 86 205
r 2.55696 2 3 tcp 1000 ------- 0 0.0 3.0 10 203
+ 2.55736 2 1 ack 40 ------- 1 3.1 1.0 87 206
- 2.55736 2 1 ack 40 ------- 1 3.1 1.0 87 206
+ 2.5584 2 3 tcp 1000 ------- 1 1.0 3.1 102 222
- 2.5584 2 3 tcp 1000 ------- 1 1.0 3.1 102 222
r 2.5624 2 1 ack 40 ------- 1 3.1 1.0 87 206
+ 2.56736 2 1 ack 40 ------- 1 3.1 1.0 88 207
- 2.56736 2 1 ack 40 ------- 1 3.1 1.0 88 207
+ 2.5684 2 3 tcp 1000 ------- 1 1.0 3.1 103 224
- 2.5684 2 3 tcp 1000 ------- 1 1.0 3.1 103 224
r 2.5724 2 1 ack 40 ------- 1 3.1 1.0 88 207
+ 2.57736 2 1 ack 40 ------- 1 3.1 1.0 89 208
- 2.57736 2 1 ack 40 ------- 1 3.1 1.0 89 208
+ 2.5784 2 3 tcp 1000 ------- 1 1.0 3.1 104 225
- 2.5784 2 3 tcp 1000 ------- 1 1.0 3.1 104 225
r 2.5824 2 1 ack 40 ------- 1 3.1 1.0 89 208
+ 2.58736 2 1 ack 40 ------- 1 3.1 1.0 90 210
- 2.58736 2 1 ack 40 ------- 1 3.1 1.0 90 210
+ 2.5884 2 3 tcp 1000 ------- 1 1.0 3.1 105 226
- 2.5884 2 3 tcp 1000 ------- 1 1.0 3.1 105 226