n -t * -a 1.0.1  -s 1 -x 500 -y 400 -Z 0  -z 20 -v circle -c black
V -t * -v 1.0a5 -a 0
W -t * -x 670 -y 670
A -t * -n 3 -p 0 -o 0xffffffff -c 31 -a 1
A -t * -h 1 -m 1023 -s 22
A -t * -h 2 -m 2047 -s 11
A -t * -h 3 -m 2047 -s 0
c -t * -i 4 -n brown
c -t * -i 0 -n red
c -t * -i 5 -n tan
c -t * -i 1 -n blue
c -t * -i 6 -n gold
c -t * -i 2 -n chocolate
c -t * -i 7 -n black
c -t * -i 3 -n red
n -t * -a 1.0.0 -s 0 -S UP -v circle -c black -i black -x 300 -y 400 -Z 0
+ -t 0.006001698 -s 0 -d -1 -p UNKN -e 22 -c 2 -a 0 -i 0 -k MAC 
- -t 0.006001698 -s 0 -d -1 -p UNKN -e 22 -c 2 -a 0 -i 0 -k MAC
h -t 0.006001698 -s 0 -d -1 -p UNKN -e 22 -c 2 -a 0 -i 0 -k MAC
+ -t 0.006057253 -s 0 -d -1 -p UNKN -e 31 -c 2 -a 0 -i 0 -k MAC 
- -t 0.006057253 -s 0 -d -1 -p UNKN -e 31 -c 2 -a 0 -i 0 -k MAC
h -t 0.006057253 -s 0 -d -1 -p UNKN -e 31 -c 2 -a 0 -i 0 -k MAC
r -t 0.006057919 -s 1 -d -1 -p UNKN -e 22 -c 2 -a 0 -i 0 -k MAC
+ -t 0.006112809 -s 0 -d -1 -p UNKN -e 115 -c 2 -a 0 -i 0 -k MAC 
- -t 0.006112809 -s 0 -d -1 -p UNKN -e 115 -c 2 -a 0 -i 0 -k MAC
h -t 0.006112809 -s 0 -d -1 -p UNKN -e 115 -c 2 -a 0 -i 0 -k MAC
r -t 0.006113475 -s 1 -d -1 -p UNKN -e 31 -c 2 -a 0 -i 0 -k MAC
+ -t 0.006168365 -s 0 -d -1 -p UNKN -e 77 -c 2 -a 0 -i 0 -k MAC 
- -t 0.006168365 -s 0 -d -1 -p UNKN -e 77 -c 2 -a 0 -i 0 -k MAC
h -t 0.006168365 -s 0 -d -1 -p UNKN -e 77 -c 2 -a 0 -i 0 -k MAC
r -t 0.006169030 -s 1 -d -1 -p UNKN -e 115 -c 2 -a 0 -i 0 -k MAC
r -t 0.006224586 -s 1 -d -1 -p UNKN -e 77 -c 2 -a 0 -i 0 -k MAC
+ -t 0.011001698 -s 0 -d -1 -p UNKN -e 22 -c 2 -a 0 -i 0 -k MAC 
- -t 0.011001698 -s 0 -d -1 -p UNKN -e 22 -c 2 -a 0 -i 0 -k MAC
h -t 0.011001698 -s 0 -d -1 -p UNKN -e 22 -c 2 -a 0 -i 0 -k MAC
+ -t 0.011057253 -s 0 -d -1 -p UNKN -e 31 -c 2 -a 0 -i 0 -k MAC 
- -t 0.011057253 -s 0 -d -1 -p UNKN -e 31 -c 2 -a 0 -i 0 -k MAC
h -t 0.011057253 -s 0 -d -1 -p UNKN -e 31 -c 2 -a 0 -i 0 -k MAC
r -t 0.011057919 -s 1 -d -1 -p UNKN -e 22 -c 2 -a 0 -i 0 -k MAC
r -t 0.011113475 -s 1 -d -1 -p UNKN -e 31 -c 2 -a 0 -i 0 -k MAC
+ -t 0.012491252 -s 1 -d -1 -p UNKN -e 19 -c 2 -a 0 -i 0 -k MAC 
- -t 0.012491252 -s 1 -d -1 -p UNKN -e 19 -c 2 -a 0 -i 0 -k MAC
h -t 0.012491252 -s 1 -d -1 -p UNKN -e 19 -c 2 -a 0 -i 0 -k MAC
r -t 0.012512414 -s 0 -d -1 -p UNKN -e 19 -c 2 -a 0 -i 0 -k MAC
+ -t 0.016001698 -s 0 -d -1 -p UNKN -e 22 -c 2 -a 0 -i 0 -k MAC 
- -t 0.016001698 -s 0 -d -1 -p UNKN -e 22 -c 2 -a 0 -i 0 -k MAC
h -t 0.016001698 -s 0 -d -1 -p UNKN -e 22 -c 2 -a 0 -i 0 -k MAC
+ -t 0.016057253 -s 0 -d -1 -p UNKN -e 31 -c 2 -a 0 -i 0 -k MAC 
- -t 0.016057253 -s 0 -d -1 -p UNKN -e 31 -c 2 -a 0 -i 0 -k MAC
h -t 0.016057253 -s 0 -d -1 -p UNKN -e 31 -c 2 -a 0 -i 0 -k MAC
r -t 0.016057919 -s 1 -d -1 -p UNKN -e 22 -c 2 -a 0 -i 0 -k MAC
+ -t 0.016112809 -s 0 -d -1 -p UNKN -e 28 -c 2 -a 0 -i 0 -k MAC 
- -t 0.016112809 -s 0 -d -1 -p UNKN -e 28 -c 2 -a 0 -i 0 -k MAC
h -t 0.016112809 -s 0 -d -1 -p UNKN -e 28 -c 2 -a 0 -i 0 -k MAC
r -t 0.016113475 -s 1 -d -1 -p UNKN -e 31 -c 2 -a 0 -i 0 -k MAC
r -t 0.016169030 -s 1 -d -1 -p UNKN -e 28 -c 2 -a 0 -i 0 -k MAC
+ -t 0.017623370 -s 1 -d -1 -p UNKN -e 6 -c 2 -a 0 -i 0 -k MAC 
- -t 0.017623370 -s 1 -d -1 -p UNKN -e 6 -c 2 -a 0 -i 0 -k MAC
h -t 0.017623370 -s 1 -d -1 -p UNKN -e 6 -c 2 -a 0 -i 0 -k MAC
r -t 0.017630509 -s 0 -d -1 -p UNKN -e 6 -c 2 -a 0 -i 0 -k MAC
+ -t 0.021001698 -s 0 -d -1 -p UNKN -e 22 -c 2 -a 0 -i 0 -k MAC 
- -t 0.021001698 -s 0 -d -1 -p UNKN -e 22 -c 2 -a 0 -i 0 -k MAC
h -t 0.021001698 -s 0 -d -1 -p UNKN -e 22 -c 2 -a 0 -i 0 -k MAC
+ -t 0.021057253 -s 0 -d -1 -p UNKN -e 37 -c 2 -a 0 -i 0 -k MAC 
- -t 0.021057253 -s 0 -d -1 -p UNKN -e 37 -c 2 -a 0 -i 0 -k MAC
h -t 0.021057253 -s 0 -d -1 -p UNKN -e 37 -c 2 -a 0 -i 0 -k MAC
r -t 0.021057919 -s 1 -d -1 -p UNKN -e 22 -c 2 -a 0 -i 0 -k MAC
r -t 0.021113475 -s 1 -d -1 -p UNKN -e 37 -c 2 -a 0 -i 0 -k MAC
+ -t 0.022894725 -s 1 -d -1 -p UNKN -e 18 -c 2 -a 0 -i 0 -k MAC 
- -t 0.022894725 -s 1 -d -1 -p UNKN -e 18 -c 2 -a 0 -i 0 -k MAC
h -t 0.022894725 -s 1 -d -1 -p UNKN -e 18 -c 2 -a 0 -i 0 -k MAC
r -t 0.023062057 -s 0 -d -1 -p UNKN -e 18 -c 2 -a 0 -i 0 -k MAC
+ -t 0.026001698 -s 0 -d -1 -p UNKN -e 26 -c 2 -a 0 -i 0 -k MAC 
- -t 0.026001698 -s 0 -d -1 -p UNKN -e 26 -c 2 -a 0 -i 0 -k MAC
h -t 0.026001698 -s 0 -d -1 -p UNKN -e 26 -c 2 -a 0 -i 0 -k MAC
+ -t 0.026057253 -s 0 -d -1 -p UNKN -e 31 -c 2 -a 0 -i 0 -k MAC 
- -t 0.026057253 -s 0 -d -1 -p UNKN -e 31 -c 2 -a 0 -i 0 -k MAC
h -t 0.026057253 -s 0 -d -1 -p UNKN -e 31 -c 2 -a 0 -i 0 -k MAC
r -t 0.026057919 -s 1 -d -1 -p UNKN -e 26 -c 2 -a 0 -i 0 -k MAC
r -t 0.026113475 -s 1 -d -1 -p UNKN -e 31 -c 2 -a 0 -i 0 -k MAC
+ -t 0.026723920 -s 0 -d -1 -p UNKN -e 12 -c 2 -a 0 -i 0 -k MAC 
- -t 0.026723920 -s 0 -d -1 -p UNKN -e 12 -c 2 -a 0 -i 0 -k MAC
h -t 0.026723920 -s 0 -d -1 -p UNKN -e 12 -c 2 -a 0 -i 0 -k MAC
r -t 0.026891252 -s 1 -d -1 -p UNKN -e 12 -c 2 -a 0 -i 0 -k MAC
+ -t 0.027616947 -s 1 -d -1 -p UNKN -e 6 -c 2 -a 0 -i 0 -k MAC 
- -t 0.027616947 -s 1 -d -1 -p UNKN -e 6 -c 2 -a 0 -i 0 -k MAC
h -t 0.027616947 -s 1 -d -1 -p UNKN -e 6 -c 2 -a 0 -i 0 -k MAC
r -t 0.027624085 -s 0 -d -1 -p UNKN -e 6 -c 2 -a 0 -i 0 -k MAC
+ -t 0.031001698 -s 0 -d -1 -p UNKN -e 22 -c 2 -a 0 -i 0 -k MAC 
- -t 0.031001698 -s 0 -d -1 -p UNKN -e 22 -c 2 -a 0 -i 0 -k MAC
h -t 0.031001698 -s 0 -d -1 -p UNKN -e 22 -c 2 -a 0 -i 0 -k MAC
+ -t 0.031057253 -s 0 -d -1 -p UNKN -e 37 -c 2 -a 0 -i 0 -k MAC 
- -t 0.031057253 -s 0 -d -1 -p UNKN -e 37 -c 2 -a 0 -i 0 -k MAC
h -t 0.031057253 -s 0 -d -1 -p UNKN -e 37 -c 2 -a 0 -i 0 -k MAC
r -t 0.031057919 -s 1 -d -1 -p UNKN -e 22 -c 2 -a 0 -i 0 -k MAC
r -t 0.031113475 -s 1 -d -1 -p UNKN -e 37 -c 2 -a 0 -i 0 -k MAC
+ -t 0.032894725 -s 1 -d -1 -p UNKN -e 12 -c 2 -a 0 -i 0 -k MAC 
- -t 0.032894725 -s 1 -d -1 -p UNKN -e 12 -c 2 -a 0 -i 0 -k MAC
h -t 0.032894725 -s 1 -d -1 -p UNKN -e 12 -c 2 -a 0 -i 0 -k MAC
r -t 0.033062057 -s 0 -d -1 -p UNKN -e 12 -c 2 -a 0 -i 0 -k MAC
+ -t 0.036001698 -s 0 -d -1 -p UNKN -e 26 -c 2 -a 0 -i 0 -k MAC 
- -t 0.036001698 -s 0 -d -1 -p UNKN -e 26 -c 2 -a 0 -i 0 -k MAC
h -t 0.036001698 -s 0 -d -1 -p UNKN -e 26 -c 2 -a 0 -i 0 -k MAC
+ -t 0.036057253 -s 0 -d -1 -p UNKN -e 31 -c 2 -a 0 -i 0 -k MAC 
- -t 0.036057253 -s 0 -d -1 -p UNKN -e 31 -c 2 -a 0 -i 0 -k MAC
h -t 0.036057253 -s 0 -d -1 -p UNKN -e 31 -c 2 -a 0 -i 0 -k MAC
r -t 0.036057919 -s 1 -d -1 -p UNKN -e 26 -c 2 -a 0 -i 0 -k MAC
r -t 0.036113475 -s 1 -d -1 -p UNKN -e 31 -c 2 -a 0 -i 0 -k MAC
+ -t 0.036723920 -s 0 -d -1 -p UNKN -e 16 -c 2 -a 0 -i 0 -k MAC 
- -t 0.036723920 -s 0 -d -1 -p UNKN -e 16 -c 2 -a 0 -i 0 -k MAC
h -t 0.036723920 -s 0 -d -1 -p UNKN -e 16 -c 2 -a 0 -i 0 -k MAC
r -t 0.036891252 -s 1 -d -1 -p UNKN -e 16 -c 2 -a 0 -i 0 -k MAC
+ -t 0.037636218 -s 1 -d -1 -p UNKN -e 6 -c 2 -a 0 -i 0 -k MAC 
- -t 0.037636218 -s 1 -d -1 -p UNKN -e 6 -c 2 -a 0 -i 0 -k MAC
h -t 0.037636218 -s 1 -d -1 -p UNKN -e 6 -c 2 -a 0 -i 0 -k MAC
r -t 0.037643356 -s 0 -d -1 -p UNKN -e 6 -c 2 -a 0 -i 0 -k MAC
+ -t 0.041001698 -s 0 -d -1 -p UNKN -e 22 -c 2 -a 0 -i 0 -k MAC 
- -t 0.041001698 -s 0 -d -1 -p UNKN -e 22 -c 2 -a 0 -i 0 -k MAC
h -t 0.041001698 -s 0 -d -1 -p UNKN -e 22 -c 2 -a 0 -i 0 -k MAC
+ -t 0.041057253 -s 0 -d -1 -p UNKN -e 37 -c 2 -a 0 -i 0 -k MAC 
- -t 0.041057253 -s 0 -d -1 -p UNKN -e 37 -c 2 -a 0 -i 0 -k MAC
h -t 0.041057253 -s 0 -d -1 -p UNKN -e 37 -c 2 -a 0 -i 0 -k MAC
r -t 0.041057919 -s 1 -d -1 -p UNKN -e 22 -c 2 -a 0 -i 0 -k MAC
r -t 0.041113475 -s 1 -d -1 -p UNKN -e 37 -c 2 -a 0 -i 0 -k MAC
+ -t 0.042894725 -s 1 -d -1 -p UNKN -e 12 -c 2 -a 0 -i 0 -k MAC 
- -t 0.042894725 -s 1 -d -1 -p UNKN -e 12 -c 2 -a 0 -i 0 -k MAC
h -t 0.042894725 -s 1 -d -1 -p UNKN -e 12 -c 2 -a 0 -i 0 -k MAC
r -t 0.043062057 -s 0 -d -1 -p UNKN -e 12 -c 2 -a 0 -i 0 -k MAC
+ -t 0.046001698 -s 0 -d -1 -p UNKN -e 22 -c 2 -a 0 -i 0 -k MAC 
- -t 0.046001698 -s 0 -d -1 -p UNKN -e 22 -c 2 -a 0 -i 0 -k MAC
h -t 0.046001698 -s 0 -d -1 -p UNKN -e 22 -c 2 -a 0 -i 0 -k MAC
+ -t 0.046057253 -s 0 -d -1 -p UNKN -e 31 -c 2 -a 0 -i 0 -k MAC 
- -t 0.046057253 -s 0 -d -1 -p UNKN -e 31 -c 2 -a 0 -i 0 -k MAC
h -t 0.046057253 -s 0 -d -1 -p UNKN -e 31 -c 2 -a 0 -i 0 -k MAC
r -t 0.046057919 -s 1 -d -1 -p UNKN -e 22 -c 2 -a 0 -i 0 -k MAC
r -t 0.046113475 -s 1 -d -1 -p UNKN -e 31 -c 2 -a 0 -i 0 -k MAC
+ -t 0.051001698 -s 0 -d -1 -p UNKN -e 22 -c 2 -a 0 -i 0 -k MAC 
- -t 0.051001698 -s 0 -d -1 -p UNKN -e 22 -c 2 -a 0 -i 0 -k MAC
h -t 0.051001698 -s 0 -d -1 -p UNKN -e 22 -c 2 -a 0 -i 0 -k MAC
+ -t 0.051057253 -s 0 -d -1 -p UNKN -e 31 -c 2 -a 0 -i 0 -k MAC 
- -t 0.051057253 -s 0 -d -1 -p UNKN -e 31 -c 2 -a 0 -i 0 -k MAC
h -t 0.051057253 -s 0 -d -1 -p UNKN -e 31 -c 2 -a 0 -i 0 -k MAC
r -t 0.051057919 -s 1 -d -1 -p UNKN -e 22 -c 2 -a 0 -i 0 -k MAC
r -t 0.051113475 -s 1 -d -1 -p UNKN -e 31 -c 2 -a 0 -i 0 -k MAC
+ -t 0.056001698 -s 0 -d -1 -p UNKN -e 22 -c 2 -a 0 -i 0 -k MAC 
- -t 0.056001698 -s 0 -d -1 -p UNKN -e 22 -c 2 -a 0 -i 0 -k MAC
h -t 0.056001698 -s 0 -d -1 -p UNKN -e 22 -c 2 -a 0 -i 0 -k MAC
+ -t 0.056057253 -s 0 -d -1 -p UNKN -e 31 -c 2 -a 0 -i 0 -k MAC 
- -t 0.056057253 -s 0 -d -1 -p UNKN -e 31 -c 2 -a 0 -i 0 -k MAC
h -t 0.056057253 -s 0 -d -1 -p UNKN -e 31 -c 2 -a 0 -i 0 -k MAC
r -t 0.056057919 -s 1 -d -1 -p UNKN -e 22 -c 2 -a 0 -i 0 -k MAC
r -t 0.056113475 -s 1 -d -1 -p UNKN -e 31 -c 2 -a 0 -i 0 -k MAC
+ -t 0.061001698 -s 0 -d -1 -p UNKN -e 22 -c 2 -a 0 -i 0 -k MAC 
- -t 0.061001698 -s 0 -d -1 -p UNKN -e 22 -c 2 -a 0 -i 0 -k MAC
h -t 0.061001698 -s 0 -d -1 -p UNKN -e 22 -c 2 -a 0 -i 0 -k MAC
+ -t 0.061057253 -s 0 -d -1 -p UNKN -e 31 -c 2 -a 0 -i 0 -k MAC 
- -t 0.061057253 -s 0 -d -1 -p UNKN -e 31 -c 2 -a 0 -i 0 -k MAC
h -t 0.061057253 -s 0 -d -1 -p UNKN -e 31 -c 2 -a 0 -i 0 -k MAC
r -t 0.061057919 -s 1 -d -1 -p UNKN -e 22 -c 2 -a 0 -i 0 -k MAC
r -t 0.061113475 -s 1 -d -1 -p UNKN -e 31 -c 2 -a 0 -i 0 -k MAC
+ -t 0.066001698 -s 0 -d -1 -p UNKN -e 22 -c 2 -a 0 -i 0 -k MAC 
- -t 0.066001698 -s 0 -d -1 -p UNKN -e 22 -c 2 -a 0 -i 0 -k MAC
h -t 0.066001698 -s 0 -d -1 -p UNKN -e 22 -c 2 -a 0 -i 0 -k MAC
+ -t 0.066057253 -s 0 -d -1 -p UNKN -e 31 -c 2 -a 0 -i 0 -k MAC 
- -t 0.066057253 -s 0 -d -1 -p UNKN -e 31 -c 2 -a 0 -i 0 -k MAC
h -t 0.066057253 -s 0 -d -1 -p UNKN -e 31 -c 2 -a 0 -i 0 -k MAC
r -t 0.066057919 -s 1 -d -1 -p UNKN -e 22 -c 2 -a 0 -i 0 -k MAC
r -t 0.066113475 -s 1 -d -1 -p UNKN -e 31 -c 2 -a 0 -i 0 -k MAC
+ -t 0.071001698 -s 0 -d -1 -p UNKN -e 22 -c 2 -a 0 -i 0 -k MAC 
- -t 0.071001698 -s 0 -d -1 -p UNKN -e 22 -c 2 -a 0 -i 0 -k MAC
h -t 0.071001698 -s 0 -d -1 -p UNKN -e 22 -c 2 -a 0 -i 0 -k MAC
+ -t 0.071057253 -s 0 -d -1 -p UNKN -e 31 -c 2 -a 0 -i 0 -k MAC 
- -t 0.071057253 -s 0 -d -1 -p UNKN -e 31 -c 2 -a 0 -i 0 -k MAC
h -t 0.071057253 -s 0 -d -1 -p UNKN -e 31 -c 2 -a 0 -i 0 -k MAC
r -t 0.071057919 -s 1 -d -1 -p UNKN -e 22 -c 2 -a 0 -i 0 -k MAC
r -t 0.071113475 -s 1 -d -1 -p UNKN -e 31 -c 2 -a 0 -i 0 -k MAC
+ -t 0.076001698 -s 0 -d -1 -p UNKN -e 22 -c 2 -a 0 -i 0 -k MAC 
- -t 0.076001698 -s 0 -d -1 -p UNKN -e 22 -c 2 -a 0 -i 0 -k MAC
h -t 0.076001698 -s 0 -d -1 -p UNKN -e 22 -c 2 -a 0 -i 0 -k MAC
+ -t 0.076057253 -s 0 -d -1 -p UNKN -e 31 -c 2 -a 0 -i 0 -k MAC 
- -t 0.076057253 -s 0 -d -1 -p UNKN -e 31 -c 2 -a 0 -i 0 -k MAC
h -t 0.076057253 -s 0 -d -1 -p UNKN -e 31 -c 2 -a 0 -i 0 -k MAC
r -t 0.076057919 -s 1 -d -1 -p UNKN -e 22 -c 2 -a 0 -i 0 -k MAC
r -t 0.076113475 -s 1 -d -1 -p UNKN -e 31 -c 2 -a 0 -i 0 -k MAC
+ -t 0.081001698 -s 0 -d -1 -p UNKN -e 22 -c 2 -a 0 -i 0 -k MAC 
- -t 0.081001698 -s 0 -d -1 -p UNKN -e 22 -c 2 -a 0 -i 0 -k MAC
h -t 0.081001698 -s 0 -d -1 -p UNKN -e 22 -c 2 -a 0 -i 0 -k MAC
+ -t 0.081057253 -s 0 -d -1 -p UNKN -e 31 -c 2 -a 0 -i 0 -k MAC 
- -t 0.081057253 -s 0 -d -1 -p UNKN -e 31 -c 2 -a 0 -i 0 -k MAC
h -t 0.081057253 -s 0 -d -1 -p UNKN -e 31 -c 2 -a 0 -i 0 -k MAC
r -t 0.081057919 -s 1 -d -1 -p UNKN -e 22 -c 2 -a 0 -i 0 -k MAC
r -t 0.081113475 -s 1 -d -1 -p UNKN -e 31 -c 2 -a 0 -i 0 -k MAC
+ -t 0.086001698 -s 0 -d -1 -p UNKN -e 22 -c 2 -a 0 -i 0 -k MAC 
- -t 0.086001698 -s 0 -d -1 -p UNKN -e 22 -c 2 -a 0 -i 0 -k MAC
h -t 0.086001698 -s 0 -d -1 -p UNKN -e 22 -c 2 -a 0 -i 0 -k MAC
+ -t 0.086057253 -s 0 -d -1 -p UNKN -e 31 -c 2 -a 0 -i 0 -k MAC 
- -t 0.086057253 -s 0 -d -1 -p UNKN -e 31 -c 2 -a 0 -i 0 -k MAC
h -t 0.086057253 -s 0 -d -1 -p UNKN -e 31 -c 2 -a 0 -i 0 -k MAC
r -t 0.086057919 -s 1 -d -1 -p UNKN -e 22 -c 2 -a 0 -i 0 -k MAC
r -t 0.086113475 -s 1 -d -1 -p UNKN -e 31 -c 2 -a 0 -i 0 -k MAC
+ -t 0.091001698 -s 0 -d -1 -p UNKN -e 22 -c 2 -a 0 -i 0 -k MAC 
- -t 0.091001698 -s 0 -d -1 -p UNKN -e 22 -c 2 -a 0 -i 0 -k MAC
h -t 0.091001698 -s 0 -d -1 -p UNKN -e 22 -c 2 -a 0 -i 0 -k MAC
+ -t 0.091057253 -s 0 -d -1 -p UNKN -e 31 -c 2 -a 0 -i 0 -k MAC 
- -t 0.091057253 -s 0 -d -1 -p UNKN -e 31 -c 2 -a 0 -i 0 -k MAC
h -t 0.091057253 -s 0 -d -1 -p UNKN -e 31 -c 2 -a 0 -i 0 -k MAC
r -t 0.091057919 -s 1 -d -1 -p UNKN -e 22 -c 2 -a 0 -i 0 -k MAC
r -t 0.091113475 -s 1 -d -1 -p UNKN -e 31 -c 2 -a 0 -i 0 -k MAC
+ -t 0.096001698 -s 0 -d -1 -p UNKN -e 22 -c 2 -a 0 -i 0 -k MAC 
- -t 0.096001698 -s 0 -d -1 -p UNKN -e 22 -c 2 -a 0 -i 0 -k MAC
h -t 0.096001698 -s 0 -d -1 -p UNKN -e 22 -c 2 -a 0 -i 0 -k MAC
+ -t 0.096057253 -s 0 -d -1 -p UNKN -e 31 -c 2 -a 0 -i 0 -k MAC 
- -t 0.096057253 -s 0 -d -1 -p UNKN -e 31 -c 2 -a 0 -i 0 -k MAC
h -t 0.096057253 -s 0 -d -1 -p UNKN -e 31 -c 2 -a 0 -i 0 -k MAC
r -t 0.096057919 -s 1 -d -1 -p UNKN -e 22 -c 2 -a 0 -i 0 -k MAC
r -t 0.096113475 -s 1 -d -1 -p UNKN -e 31 -c 2 -a 0 -i 0 -k MAC
+ -t 0.101001698 -s 0 -d -1 -p UNKN -e 22 -c 2 -a 0 -i 0 -k MAC 
- -t 0.101001698 -s 0 -d -1 -p UNKN -e 22 -c 2 -a 0 -i 0 -k MAC
h -t 0.101001698 -s 0 -d -1 -p UNKN -e 22 -c 2 -a 0 -i 0 -k MAC
+ -t 0.101057253 -s 0 -d -1 -p UNKN -e 31 -c 2 -a 0 -i 0 -k MAC 
- -t 0.101057253 -s 0 -d -1 -p UNKN -e 31 -c 2 -a 0 -i 0 -k MAC
h -t 0.101057253 -s 0 -d -1 -p UNKN -e 31 -c 2 -a 0 -i 0 -k MAC
r -t 0.101057919 -s 1 -d -1 -p UNKN -e 22 -c 2 -a 0 -i 0 -k MAC
r -t 0.101113475 -s 1 -d -1 -p UNKN -e 31 -c 2 -a 0 -i 0 -k MAC
+ -t 0.106001698 -s 0 -d -1 -p UNKN -e 22 -c 2 -a 0 -i 0 -k MAC 
- -t 0.106001698 -s 0 -d -1 -p UNKN -e 22 -c 2 -a 0 -i 0 -k MAC
h -t 0.106001698 -s 0 -d -1 -p UNKN -e 22 -c 2 -a 0 -i 0 -k MAC
+ -t 0.106057253 -s 0 -d -1 -p UNKN -e 31 -c 2 -a 0 -i 0 -k MAC 
- -t 0.106057253 -s 0 -d -1 -p UNKN -e 31 -c 2 -a 0 -i 0 -k MAC
h -t 0.106057253 -s 0 -d -1 -p UNKN -e 31 -c 2 -a 0 -i 0 -k MAC
r -t 0.106057919 -s 1 -d -1 -p UNKN -e 22 -c 2 -a 0 -i 0 -k MAC
r -t 0.106113475 -s 1 -d -1 -p UNKN -e 31 -c 2 -a 0 -i 0 -k MAC
+ -t 0.111001698 -s 0 -d -1 -p UNKN -e 22 -c 2 -a 0 -i 0 -k MAC 
- -t 0.111001698 -s 0 -d -1 -p UNKN -e 22 -c 2 -a 0 -i 0 -k MAC
h -t 0.111001698 -s 0 -d -1 -p UNKN -e 22 -c 2 -a 0 -i 0 -k MAC
+ -t 0.111057253 -s 0 -d -1 -p UNKN -e 31 -c 2 -a 0 -i 0 -k MAC 
- -t 0.111057253 -s 0 -d -1 -p UNKN -e 31 -c 2 -a 0 -i 0 -k MAC
h -t 0.111057253 -s 0 -d -1 -p UNKN -e 31 -c 2 -a 0 -i 0 -k MAC
r -t 0.111057919 -s 1 -d -1 -p UNKN -e 22 -c 2 -a 0 -i 0 -k MAC
r -t 0.111113475 -s 1 -d -1 -p UNKN -e 31 -c 2 -a 0 -i 0 -k MAC
+ -t 0.116001698 -s 0 -d -1 -p UNKN -e 22 -c 2 -a 0 -i 0 -k MAC 
- -t 0.116001698 -s 0 -d -1 -p UNKN -e 22 -c 2 -a 0 -i 0 -k MAC
h -t 0.116001698 -s 0 -d -1 -p UNKN -e 22 -c 2 -a 0 -i 0 -k MAC
+ -t 0.116057253 -s 0 -d -1 -p UNKN -e 31 -c 2 -a 0 -i 0 -k MAC 
- -t 0.116057253 -s 0 -d -1 -p UNKN -e 31 -c 2 -a 0 -i 0 -k MAC
h -t 0.116057253 -s 0 -d -1 -p UNKN -e 31 -c 2 -a 0 -i 0 -k MAC
r -t 0.116057919 -s 1 -d -1 -p UNKN -e 22 -c 2 -a 0 -i 0 -k MAC
r -t 0.116113475 -s 1 -d -1 -p UNKN -e 31 -c 2 -a 0 -i 0 -k MAC
+ -t 0.121001698 -s 0 -d -1 -p UNKN -e 22 -c 2 -a 0 -i 0 -k MAC 
- -t 0.121001698 -s 0 -d -1 -p UNKN -e 22 -c 2 -a 0 -i 0 -k MAC
h -t 0.121001698 -s 0 -d -1 -p UNKN -e 22 -c 2 -a 0 -i 0 -k MAC
+ -t 0.121057253 -s 0 -d -1 -p UNKN -e 31 -c 2 -a 0 -i 0 -k MAC 
- -t 0.121057253 -s 0 -d -1 -p UNKN -e 31 -c 2 -a 0 -i 0 -k MAC
h -t 0.121057253 -s 0 -d -1 -p UNKN -e 31 -c 2 -a 0 -i 0 -k MAC
r -t 0.121057919 -s 1 -d -1 -p UNKN -e 22 -c 2 -a 0 -i 0 -k MAC
r -t 0.121113475 -s 1 -d -1 -p UNKN -e 31 -c 2 -a 0 -i 0 -k MAC
+ -t 0.126001698 -s 0 -d -1 -p UNKN -e 22 -c 2 -a 0 -i 0 -k MAC 
- -t 0.126001698 -s 0 -d -1 -p UNKN -e 22 -c 2 -a 0 -i 0 -k MAC
h -t 0.126001698 -s 0 -d -1 -p UNKN -e 22 -c 2 -a 0 -i 0 -k MAC
+ -t 0.126057253 -s 0 -d -1 -p UNKN -e 31 -c 2 -a 0 -i 0 -k MAC 
- -t 0.126057253 -s 0 -d -1 -p UNKN -e 31 -c 2 -a 0 -i 0 -k MAC
h -t 0.126057253 -s 0 -d -1 -p UNKN -e 31 -c 2 -a 0 -i 0 -k MAC
r -t 0.126057919 -s 1 -d -1 -p UNKN -e 22 -c 2 -a 0 -i 0 -k MAC
r -t 0.126113475 -s 1 -d -1 -p UNKN -e 31 -c 2 -a 0 -i 0 -k MAC
+ -t 0.131001698 -s 0 -d -1 -p UNKN -e 22 -c 2 -a 0 -i 0 -k MAC 
- -t 0.131001698 -s 0 -d -1 -p UNKN -e 22 -c 2 -a 0 -i 0 -k MAC
h -t 0.131001698 -s 0 -d -1 -p UNKN -e 22 -c 2 -a 0 -i 0 -k MAC
+ -t 0.131057253 -s 0 -d -1 -p UNKN -e 31 -c 2 -a 0 -i 0 -k MAC 
- -t 0.131057253 -s 0 -d -1 -p UNKN -e 31 -c 2 -a 0 -i 0 -k MAC
h -t 0.131057253 -s 0 -d -1 -p UNKN -e 31 -c 2 -a 0 -i 0 -k MAC
r -t 0.131057919 -s 1 -d -1 -p UNKN -e 22 -c 2 -a 0 -i 0 -k MAC
r -t 0.131113475 -s 1 -d -1 -p UNKN -e 31 -c 2 -a 0 -i 0 -k MAC
+ -t 0.136001698 -s 0 -d -1 -p UNKN -e 22 -c 2 -a 0 -i 0 -k MAC 
- -t 0.136001698 -s 0 -d -1 -p UNKN -e 22 -c 2 -a 0 -i 0 -k MAC
h -t 0.136001698 -s 0 -d -1 -p UNKN -e 22 -c 2 -a 0 -i 0 -k MAC
+ -t 0.136057253 -s 0 -d -1 -p UNKN -e 31 -c 2 -a 0 -i 0 -k MAC 
- -t 0.136057253 -s 0 -d -1 -p UNKN -e 31 -c 2 -a 0 -i 0 -k MAC
h -t 0.136057253 -s 0 -d -1 -p UNKN -e 31 -c 2 -a 0 -i 0 -k MAC
r -t 0.136057919 -s 1 -d -1 -p UNKN -e 22 -c 2 -a 0 -i 0 -k MAC
r -t 0.136113475 -s 1 -d -1 -p UNKN -e 31 -c 2 -a 0 -i 0 -k MAC
+ -t 0.141001698 -s 0 -d -1 -p UNKN -e 22 -c 2 -a 0 -i 0 -k MAC 
- -t 0.141001698 -s 0 -d -1 -p UNKN -e 22 -c 2 -a 0 -i 0 -k MAC
h -t 0.141001698 -s 0 -d -1 -p UNKN -e 22 -c 2 -a 0 -i 0 -k MAC
+ -t 0.141057253 -s 0 -d -1 -p UNKN -e 31 -c 2 -a 0 -i 0 -k MAC 
- -t 0.141057253 -s 0 -d -1 -p UNKN -e 31 -c 2 -a 0 -i 0 -k MAC
h -t 0.141057253 -s 0 -d -1 -p UNKN -e 31 -c 2 -a 0 -i 0 -k MAC
r -t 0.141057919 -s 1 -d -1 -p UNKN -e 22 -c 2 -a 0 -i 0 -k MAC
r -t 0.141113475 -s 1 -d -1 -p UNKN -e 31 -c 2 -a 0 -i 0 -k MAC
+ -t 0.146001698 -s 0 -d -1 -p UNKN -e 22 -c 2 -a 0 -i 0 -k MAC 
- -t 0.146001698 -s 0 -d -1 -p UNKN -e 22 -c 2 -a 0 -i 0 -k MAC
h -t 0.146001698 -s 0 -d -1 -p UNKN -e 22 -c 2 -a 0 -i 0 -k MAC
+ -t 0.146057253 -s 0 -d -1 -p UNKN -e 31 -c 2 -a 0 -i 0 -k MAC 
- -t 0.146057253 -s 0 -d -1 -p UNKN -e 31 -c 2 -a 0 -i 0 -k MAC
h -t 0.146057253 -s 0 -d -1 -p UNKN -e 31 -c 2 -a 0 -i 0 -k MAC
r -t 0.146057919 -s 1 -d -1 -p UNKN -e 22 -c 2 -a 0 -i 0 -k MAC
r -t 0.146113475 -s 1 -d -1 -p UNKN -e 31 -c 2 -a 0 -i 0 -k MAC
+ -t 0.151001698 -s 0 -d -1 -p UNKN -e 22 -c 2 -a 0 -i 0 -k MAC 
- -t 0.151001698 -s 0 -d -1 -p UNKN -e 22 -c 2 -a 0 -i 0 -k MAC
h -t 0.151001698 -s 0 -d -1 -p UNKN -e 22 -c 2 -a 0 -i 0 -k MAC
+ -t 0.151057253 -s 0 -d -1 -p UNKN -e 31 -c 2 -a 0 -i 0 -k MAC 
- -t 0.151057253 -s 0 -d -1 -p UNKN -e 31 -c 2 -a 0 -i 0 -k MAC
h -t 0.151057253 -s 0 -d -1 -p UNKN -e 31 -c 2 -a 0 -i 0 -k MAC
r -t 0.151057919 -s 1 -d -1 -p UNKN -e 22 -c 2 -a 0 -i 0 -k MAC
r -t 0.151113475 -s 1 -d -1 -p UNKN -e 31 -c 2 -a 0 -i 0 -k MAC
+ -t 0.156001698 -s 0 -d -1 -p UNKN -e 22 -c 2 -a 0 -i 0 -k MAC 
- -t 0.156001698 -s 0 -d -1 -p UNKN -e 22 -c 2 -a 0 -i 0 -k MAC
h -t 0.156001698 -s 0 -d -1 -p UNKN -e 22 -c 2 -a 0 -i 0 -k MAC
+ -t 0.156057253 -s 0 -d -1 -p UNKN -e 31 -c 2 -a 0 -i 0 -k MAC 
- -t 0.156057253 -s 0 -d -1 -p UNKN -e 31 -c 2 -a 0 -i 0 -k MAC
h -t 0.156057253 -s 0 -d -1 -p UNKN -e 31 -c 2 -a 0 -i 0 -k MAC
r -t 0.156057919 -s 1 -d -1 -p UNKN -e 22 -c 2 -a 0 -i 0 -k MAC
r -t 0.156113475 -s 1 -d -1 -p UNKN -e 31 -c 2 -a 0 -i 0 -k MAC
+ -t 0.161001698 -s 0 -d -1 -p UNKN -e 22 -c 2 -a 0 -i 0 -k MAC 
- -t 0.161001698 -s 0 -d -1 -p UNKN -e 22 -c 2 -a 0 -i 0 -k MAC
h -t 0.161001698 -s 0 -d -1 -p UNKN -e 22 -c 2 -a 0 -i 0 -k MAC
+ -t 0.161057253 -s 0 -d -1 -p UNKN -e 31 -c 2 -a 0 -i 0 -k MAC 
- -t 0.161057253 -s 0 -d -1 -p UNKN -e 31 -c 2 -a 0 -i 0 -k MAC
h -t 0.161057253 -s 0 -d -1 -p UNKN -e 31 -c 2 -a 0 -i 0 -k MAC
r -t 0.161057919 -s 1 -d -1 -p UNKN -e 22 -c 2 -a 0 -i 0 -k MAC
r -t 0.161113475 -s 1 -d -1 -p UNKN -e 31 -c 2 -a 0 -i 0 -k MAC
+ -t 0.166001698 -s 0 -d -1 -p UNKN -e 22 -c 2 -a 0 -i 0 -k MAC 
- -t 0.166001698 -s 0 -d -1 -p UNKN -e 22 -c 2 -a 0 -i 0 -k MAC
h -t 0.166001698 -s 0 -d -1 -p UNKN -e 22 -c 2 -a 0 -i 0 -k MAC
+ -t 0.166057253 -s 0 -d -1 -p UNKN -e 31 -c 2 -a 0 -i 0 -k MAC 
- -t 0.166057253 -s 0 -d -1 -p UNKN -e 31 -c 2 -a 0 -i 0 -k MAC
h -t 0.166057253 -s 0 -d -1 -p UNKN -e 31 -c 2 -a 0 -i 0 -k MAC
r -t 0.166057919 -s 1 -d -1 -p UNKN -e 22 -c 2 -a 0 -i 0 -k MAC
r -t 0.166113475 -s 1 -d -1 -p UNKN -e 31 -c 2 -a 0 -i 0 -k MAC
+ -t 0.171001698 -s 0 -d -1 -p UNKN -e 22 -c 2 -a 0 -i 0 -k MAC 
- -t 0.171001698 -s 0 -d -1 -p UNKN -e 22 -c 2 -a 0 -i 0 -k MAC
h -t 0.171001698 -s 0 -d -1 -p UNKN -e 22 -c 2 -a 0 -i 0 -k MAC
+ -t 0.171057253 -s 0 -d -1 -p UNKN -e 31 -c 2 -a 0 -i 0 -k MAC 
- -t 0.171057253 -s 0 -d -1 -p UNKN -e 31 -c 2 -a 0 -i 0 -k MAC
h -t 0.171057253 -s 0 -d -1 -p UNKN -e 31 -c 2 -a 0 -i 0 -k MAC
r -t 0.171057919 -s 1 -d -1 -p UNKN -e 22 -c 2 -a 0 -i 0 -k MAC
r -t 0.171113475 -s 1 -d -1 -p UNKN -e 31 -c 2 -a 0 -i 0 -k MAC
+ -t 0.176001698 -s 0 -d -1 -p UNKN -e 22 -c 2 -a 0 -i 0 -k MAC 
- -t 0.176001698 -s 0 -d -1 -p UNKN -e 22 -c 2 -a 0 -i 0 -k MAC
h -t 0.176001698 -s 0 -d -1 -p UNKN -e 22 -c 2 -a 0 -i 0 -k MAC
+ -t 0.176057253 -s 0 -d -1 -p UNKN -e 31 -c 2 -a 0 -i 0 -k MAC 
- -t 0.176057253 -s 0 -d -1 -p UNKN -e 31 -c 2 -a 0 -i 0 -k MAC
h -t 0.176057253 -s 0 -d -1 -p UNKN -e 31 -c 2 -a 0 -i 0 -k MAC
r -t 0.176057919 -s 1 -d -1 -p UNKN -e 22 -c 2 -a 0 -i 0 -k MAC
r -t 0.176113475 -s 1 -d -1 -p UNKN -e 31 -c 2 -a 0 -i 0 -k MAC
+ -t 0.181001698 -s 0 -d -1 -p UNKN -e 22 -c 2 -a 0 -i 0 -k MAC 
- -t 0.181001698 -s 0 -d -1 -p UNKN -e 22 -c 2 -a 0 -i 0 -k MAC
h -t 0.181001698 -s 0 -d -1 -p UNKN -e 22 -c 2 -a 0 -i 0 -k MAC
+ -t 0.181057253 -s 0 -d -1 -p UNKN -e 31 -c 2 -a 0 -i 0 -k MAC 
- -t 0.181057253 -s 0 -d -1 -p UNKN -e 31 -c 2 -a 0 -i 0 -k MAC
h -t 0.181057253 -s 0 -d -1 -p UNKN -e 31 -c 2 -a 0 -i 0 -k MAC
r -t 0.181057919 -s 1 -d -1 -p UNKN -e 22 -c 2 -a 0 -i 0 -k MAC
r -t 0.181113475 -s 1 -d -1 -p UNKN -e 31 -c 2 -a 0 -i 0 -k MAC
+ -t 0.186001698 -s 0 -d -1 -p UNKN -e 22 -c 2 -a 0 -i 0 -k MAC 
- -t 0.186001698 -s 0 -d -1 -p UNKN -e 22 -c 2 -a 0 -i 0 -k MAC
h -t 0.186001698 -s 0 -d -1 -p UNKN -e 22 -c 2 -a 0 -i 0 -k MAC
+ -t 0.186057253 -s 0 -d -1 -p UNKN -e 31 -c 2 -a 0 -i 0 -k MAC 
- -t 0.186057253 -s 0 -d -1 -p UNKN -e 31 -c 2 -a 0 -i 0 -k MAC
h -t 0.186057253 -s 0 -d -1 -p UNKN -e 31 -c 2 -a 0 -i 0 -k MAC
r -t 0.186057919 -s 1 -d -1 -p UNKN -e 22 -c 2 -a 0 -i 0 -k MAC
r -t 0.186113475 -s 1 -d -1 -p UNKN -e 31 -c 2 -a 0 -i 0 -k MAC
+ -t 0.191001698 -s 0 -d -1 -p UNKN -e 22 -c 2 -a 0 -i 0 -k MAC 
- -t 0.191001698 -s 0 -d -1 -p UNKN -e 22 -c 2 -a 0 -i 0 -k MAC
h -t 0.191001698 -s 0 -d -1 -p UNKN -e 22 -c 2 -a 0 -i 0 -k MAC
+ -t 0.191057253 -s 0 -d -1 -p UNKN -e 31 -c 2 -a 0 -i 0 -k MAC 
- -t 0.191057253 -s 0 -d -1 -p UNKN -e 31 -c 2 -a 0 -i 0 -k MAC
h -t 0.191057253 -s 0 -d -1 -p UNKN -e 31 -c 2 -a 0 -i 0 -k MAC
r -t 0.191057919 -s 1 -d -1 -p UNKN -e 22 -c 2 -a 0 -i 0 -k MAC
r -t 0.191113475 -s 1 -d -1 -p UNKN -e 31 -c 2 -a 0 -i 0 -k MAC
+ -t 0.196001698 -s 0 -d -1 -p UNKN -e 22 -c 2 -a 0 -i 0 -k MAC 
- -t 0.196001698 -s 0 -d -1 -p UNKN -e 22 -c 2 -a 0 -i 0 -k MAC
h -t 0.196001698 -s 0 -d -1 -p UNKN -e 22 -c 2 -a 0 -i 0 -k MAC
+ -t 0.196057253 -s 0 -d -1 -p UNKN -e 31 -c 2 -a 0 -i 0 -k MAC 
- -t 0.196057253 -s 0 -d -1 -p UNKN -e 31 -c 2 -a 0 -i 0 -k MAC
h -t 0.196057253 -s 0 -d -1 -p UNKN -e 31 -c 2 -a 0 -i 0 -k MAC
r -t 0.196057919 -s 1 -d -1 -p UNKN -e 22 -c 2 -a 0 -i 0 -k MAC
r -t 0.196113475 -s 1 -d -1 -p UNKN -e 31 -c 2 -a 0 -i 0 -k MAC
+ -t 0.201001698 -s 0 -d -1 -p UNKN -e 22 -c 2 -a 0 -i 0 -k MAC 
- -t 0.201001698 -s 0 -d -1 -p UNKN -e 22 -c 2 -a 0 -i 0 -k MAC
h -t 0.201001698 -s 0 -d -1 -p UNKN -e 22 -c 2 -a 0 -i 0 -k MAC
+ -t 0.201057253 -s 0 -d -1 -p UNKN -e 31 -c 2 -a 0 -i 0 -k MAC 
- -t 0.201057253 -s 0 -d -1 -p UNKN -e 31 -c 2 -a 0 -i 0 -k MAC
h -t 0.201057253 -s 0 -d -1 -p UNKN -e 31 -c 2 -a 0 -i 0 -k MAC
r -t 0.201057919 -s 1 -d -1 -p UNKN -e 22 -c 2 -a 0 -i 0 -k MAC
r -t 0.201113475 -s 1 -d -1 -p UNKN -e 31 -c 2 -a 0 -i 0 -k MAC
+ -t 0.206001698 -s 0 -d -1 -p UNKN -e 22 -c 2 -a 0 -i 0 -k MAC 
- -t 0.206001698 -s 0 -d -1 -p UNKN -e 22 -c 2 -a 0 -i 0 -k MAC
h -t 0.206001698 -s 0 -d -1 -p UNKN -e 22 -c 2 -a 0 -i 0 -k MAC
+ -t 0.206057253 -s 0 -d -1 -p UNKN -e 31 -c 2 -a 0 -i 0 -k MAC 
- -t 0.206057253 -s 0 -d -1 -p UNKN -e 31 -c 2 -a 0 -i 0 -k MAC
h -t 0.206057253 -s 0 -d -1 -p UNKN -e 31 -c 2 -a 0 -i 0 -k MAC
r -t 0.206057919 -s 1 -d -1 -p UNKN -e 22 -c 2 -a 0 -i 0 -k MAC
r -t 0.206113475 -s 1 -d -1 -p UNKN -e 31 -c 2 -a 0 -i 0 -k MAC
+ -t 0.211001698 -s 0 -d -1 -p UNKN -e 22 -c 2 -a 0 -i 0 -k MAC 
- -t 0.211001698 -s 0 -d -1 -p UNKN -e 22 -c 2 -a 0 -i 0 -k MAC
h -t 0.211001698 -s 0 -d -1 -p UNKN -e 22 -c 2 -a 0 -i 0 -k MAC
+ -t 0.211057253 -s 0 -d -1 -p UNKN -e 31 -c 2 -a 0 -i 0 -k MAC 
- -t 0.211057253 -s 0 -d -1 -p UNKN -e 31 -c 2 -a 0 -i 0 -k MAC
h -t 0.211057253 -s 0 -d -1 -p UNKN -e 31 -c 2 -a 0 -i 0 -k MAC
r -t 0.211057919 -s 1 -d -1 -p UNKN -e 22 -c 2 -a 0 -i 0 -k MAC
r -t 0.211113475 -s 1 -d -1 -p UNKN -e 31 -c 2 -a 0 -i 0 -k MAC
+ -t 0.216001698 -s 0 -d -1 -p UNKN -e 22 -c 2 -a 0 -i 0 -k MAC 
- -t 0.216001698 -s 0 -d -1 -p UNKN -e 22 -c 2 -a 0 -i 0 -k MAC
h -t 0.216001698 -s 0 -d -1 -p UNKN -e 22 -c 2 -a 0 -i 0 -k MAC
+ -t 0.216057253 -s 0 -d -1 -p UNKN -e 31 -c 2 -a 0 -i 0 -k MAC 
- -t 0.216057253 -s 0 -d -1 -p UNKN -e 31 -c 2 -a 0 -i 0 -k MAC
h -t 0.216057253 -s 0 -d -1 -p UNKN -e 31 -c 2 -a 0 -i 0 -k MAC
r -t 0.216057919 -s 1 -d -1 -p UNKN -e 22 -c 2 -a 0 -i 0 -k MAC
r -t 0.216113475 -s 1 -d -1 -p UNKN -e 31 -c 2 -a 0 -i 0 -k MAC
+ -t 0.221001698 -s 0 -d -1 -p UNKN -e 22 -c 2 -a 0 -i 0 -k MAC 
- -t 0.221001698 -s 0 -d -1 -p UNKN -e 22 -c 2 -a 0 -i 0 -k MAC
h -t 0.221001698 -s 0 -d -1 -p UNKN -e 22 -c 2 -a 0 -i 0 -k MAC
+ -t 0.221057253 -s 0 -d -1 -p UNKN -e 31 -c 2 -a 0 -i 0 -k MAC 
- -t 0.221057253 -s 0 -d -1 -p UNKN -e 31 -c 2 -a 0 -i 0 -k MAC
h -t 0.221057253 -s 0 -d -1 -p UNKN -e 31 -c 2 -a 0 -i 0 -k MAC
r -t 0.221057919 -s 1 -d -1 -p UNKN -e 22 -c 2 -a 0 -i 0 -k MAC
r -t 0.221113475 -s 1 -d -1 -p UNKN -e 31 -c 2 -a 0 -i 0 -k MAC
+ -t 0.226001698 -s 0 -d -1 -p UNKN -e 22 -c 2 -a 0 -i 0 -k MAC 
- -t 0.226001698 -s 0 -d -1 -p UNKN -e 22 -c 2 -a 0 -i 0 -k MAC
h -t 0.226001698 -s 0 -d -1 -p UNKN -e 22 -c 2 -a 0 -i 0 -k MAC
+ -t 0.226057253 -s 0 -d -1 -p UNKN -e 31 -c 2 -a 0 -i 0 -k MAC 
- -t 0.226057253 -s 0 -d -1 -p UNKN -e 31 -c 2 -a 0 -i 0 -k MAC
h -t 0.226057253 -s 0 -d -1 -p UNKN -e 31 -c 2 -a 0 -i 0 -k MAC
r -t 0.226057919 -s 1 -d -1 -p UNKN -e 22 -c 2 -a 0 -i 0 -k MAC
r -t 0.226113475 -s 1 -d -1 -p UNKN -e 31 -c 2 -a 0 -i 0 -k MAC
+ -t 0.231001698 -s 0 -d -1 -p UNKN -e 22 -c 2 -a 0 -i 0 -k MAC 
- -t 0.231001698 -s 0 -d -1 -p UNKN -e 22 -c 2 -a 0 -i 0 -k MAC
h -t 0.231001698 -s 0 -d -1 -p UNKN -e 22 -c 2 -a 0 -i 0 -k MAC
+ -t 0.231057253 -s 0 -d -1 -p UNKN -e 31 -c 2 -a 0 -i 0 -k MAC 
- -t 0.231057253 -s 0 -d -1 -p UNKN -e 31 -c 2 -a 0 -i 0 -k MAC
h -t 0.231057253 -s 0 -d -1 -p UNKN -e 31 -c 2 -a 0 -i 0 -k MAC
r -t 0.231057919 -s 1 -d -1 -p UNKN -e 22 -c 2 -a 0 -i 0 -k MAC
r -t 0.231113475 -s 1 -d -1 -p UNKN -e 31 -c 2 -a 0 -i 0 -k MAC
+ -t 0.236001698 -s 0 -d -1 -p UNKN -e 22 -c 2 -a 0 -i 0 -k MAC 
- -t 0.236001698 -s 0 -d -1 -p UNKN -e 22 -c 2 -a 0 -i 0 -k MAC
h -t 0.236001698 -s 0 -d -1 -p UNKN -e 22 -c 2 -a 0 -i 0 -k MAC
+ -t 0.236057253 -s 0 -d -1 -p UNKN -e 31 -c 2 -a 0 -i 0 -k MAC 
- -t 0.236057253 -s 0 -d -1 -p UNKN -e 31 -c 2 -a 0 -i 0 -k MAC
h -t 0.236057253 -s 0 -d -1 -p UNKN -e 31 -c 2 -a 0 -i 0 -k MAC
r -t 0.236057919 -s 1 -d -1 -p UNKN -e 22 -c 2 -a 0 -i 0 -k MAC
r -t 0.236113475 -s 1 -d -1 -p UNKN -e 31 -c 2 -a 0 -i 0 -k MAC
+ -t 0.241001698 -s 0 -d -1 -p UNKN -e 22 -c 2 -a 0 -i 0 -k MAC 
- -t 0.241001698 -s 0 -d -1 -p UNKN -e 22 -c 2 -a 0 -i 0 -k MAC
h -t 0.241001698 -s 0 -d -1 -p UNKN -e 22 -c 2 -a 0 -i 0 -k MAC
+ -t 0.241057253 -s 0 -d -1 -p UNKN -e 31 -c 2 -a 0 -i 0 -k MAC 
- -t 0.241057253 -s 0 -d -1 -p UNKN -e 31 -c 2 -a 0 -i 0 -k MAC
h -t 0.241057253 -s 0 -d -1 -p UNKN -e 31 -c 2 -a 0 -i 0 -k MAC
r -t 0.241057919 -s 1 -d -1 -p UNKN -e 22 -c 2 -a 0 -i 0 -k MAC
r -t 0.241113475 -s 1 -d -1 -p UNKN -e 31 -c 2 -a 0 -i 0 -k MAC
+ -t 0.246001698 -s 0 -d -1 -p UNKN -e 22 -c 2 -a 0 -i 0 -k MAC 
- -t 0.246001698 -s 0 -d -1 -p UNKN -e 22 -c 2 -a 0 -i 0 -k MAC
h -t 0.246001698 -s 0 -d -1 -p UNKN -e 22 -c 2 -a 0 -i 0 -k MAC
+ -t 0.246057253 -s 0 -d -1 -p UNKN -e 31 -c 2 -a 0 -i 0 -k MAC 
- -t 0.246057253 -s 0 -d -1 -p UNKN -e 31 -c 2 -a 0 -i 0 -k MAC
h -t 0.246057253 -s 0 -d -1 -p UNKN -e 31 -c 2 -a 0 -i 0 -k MAC
r -t 0.246057919 -s 1 -d -1 -p UNKN -e 22 -c 2 -a 0 -i 0 -k MAC
r -t 0.246113475 -s 1 -d -1 -p UNKN -e 31 -c 2 -a 0 -i 0 -k MAC
+ -t 0.251001698 -s 0 -d -1 -p UNKN -e 22 -c 2 -a 0 -i 0 -k MAC 
- -t 0.251001698 -s 0 -d -1 -p UNKN -e 22 -c 2 -a 0 -i 0 -k MAC
h -t 0.251001698 -s 0 -d -1 -p UNKN -e 22 -c 2 -a 0 -i 0 -k MAC
+ -t 0.251057253 -s 0 -d -1 -p UNKN -e 31 -c 2 -a 0 -i 0 -k MAC 
- -t 0.251057253 -s 0 -d -1 -p UNKN -e 31 -c 2 -a 0 -i 0 -k MAC
h -t 0.251057253 -s 0 -d -1 -p UNKN -e 31 -c 2 -a 0 -i 0 -k MAC
r -t 0.251057919 -s 1 -d -1 -p UNKN -e 22 -c 2 -a 0 -i 0 -k MAC
r -t 0.251113475 -s 1 -d -1 -p UNKN -e 31 -c 2 -a 0 -i 0 -k MAC
+ -t 0.256001698 -s 0 -d -1 -p UNKN -e 22 -c 2 -a 0 -i 0 -k MAC 
- -t 0.256001698 -s 0 -d -1 -p UNKN -e 22 -c 2 -a 0 -i 0 -k MAC
h -t 0.256001698 -s 0 -d -1 -p UNKN -e 22 -c 2 -a 0 -i 0 -k MAC
+ -t 0.256057253 -s 0 -d -1 -p UNKN -e 31 -c 2 -a 0 -i 0 -k MAC 
- -t 0.256057253 -s 0 -d -1 -p UNKN -e 31 -c 2 -a 0 -i 0 -k MAC
h -t 0.256057253 -s 0 -d -1 -p UNKN -e 31 -c 2 -a 0 -i 0 -k MAC
r -t 0.256057919 -s 1 -d -1 -p UNKN -e 22 -c 2 -a 0 -i 0 -k MAC
r -t 0.256113475 -s 1 -d -1 -p UNKN -e 31 -c 2 -a 0 -i 0 -k MAC
+ -t 0.261001698 -s 0 -d -1 -p UNKN -e 22 -c 2 -a 0 -i 0 -k MAC 
- -t 0.261001698 -s 0 -d -1 -p UNKN -e 22 -c 2 -a 0 -i 0 -k MAC
h -t 0.261001698 -s 0 -d -1 -p UNKN -e 22 -c 2 -a 0 -i 0 -k MAC