s -t 0.006001698 -Hs 0 -Hd -2 -Ni 0 -Nx 300.00 -Ny 400.00 -Nz 0.00 -Ne -1.000000 -Nl MAC -Nw --- -Ma 0 -Md 0 -Ms 0 -Mt 0 
s -t 0.006057253 -Hs 0 -Hd -2 -Ni 0 -Nx 300.00 -Ny 400.00 -Nz 0.00 -Ne -1.000000 -Nl MAC -Nw --- -Ma 0 -Md 0 -Ms 0 -Mt 0 
r -t 0.006057919 -Hs 1 -Hd -2 -Ni 1 -Nx 500.00 -Ny 400.00 -Nz 0.00 -Ne -1.000000 -Nl MAC -Nw --- -Ma 0 -Md 0 -Ms 0 -Mt 0 
s -t 0.006112809 -Hs 0 -Hd -2 -Ni 0 -Nx 300.00 -Ny 400.00 -Nz 0.00 -Ne -1.000000 -Nl MAC -Nw --- -Ma 0 -Md 0 -Ms 0 -Mt 0 
r -t 0.006113475 -Hs 1 -Hd -2 -Ni 1 -Nx 500.00 -Ny 400.00 -Nz 0.00 -Ne -1.000000 -Nl MAC -Nw --- -Ma 0 -Md 0 -Ms 0 -Mt 0 
s -t 0.006168365 -Hs 0 -Hd -2 -Ni 0 -Nx 300.00 -Ny 400.00 -Nz 0.00 -Ne -1.000000 -Nl MAC -Nw --- -Ma 0 -Md 0 -Ms 0 -Mt 0 
r -t 0.006169030 -Hs 1 -Hd -2 -Ni 1 -Nx 500.00 -Ny 400.00 -Nz 0.00 -Ne -1.000000 -Nl MAC -Nw --- -Ma 0 -Md 0 -Ms 0 -Mt 0 
r -t 0.006224586 -Hs 1 -Hd -2 -Ni 1 -Nx 500.00 -Ny 400.00 -Nz 0.00 -Ne -1.000000 -Nl MAC -Nw --- -Ma 0 -Md 0 -Ms 0 -Mt 0 
s -t 0.011001698 -Hs 0 -Hd -2 -Ni 0 -Nx 300.00 -Ny 400.00 -Nz 0.00 -Ne -1.000000 -Nl MAC -Nw --- -Ma 0 -Md 0 -Ms 0 -Mt 0 
s -t 0.011057253 -Hs 0 -Hd -2 -Ni 0 -Nx 300.00 -Ny 400.00 -Nz 0.00 -Ne -1.000000 -Nl MAC -Nw --- -Ma 0 -Md 0 -Ms 0 -Mt 0 
r -t 0.011057919 -Hs 1 -Hd -2 -Ni 1 -Nx 500.00 -Ny 400.00 -Nz 0.00 -Ne -1.000000 -Nl MAC -Nw --- -Ma 0 -Md 0 -Ms 0 -Mt 0 
r -t 0.011113475 -Hs 1 -Hd -2 -Ni 1 -Nx 500.00 -Ny 400.00 -Nz 0.00 -Ne -1.000000 -Nl MAC -Nw --- -Ma 0 -Md 0 -Ms 0 -Mt 0 
s -t 0.012491252 -Hs 1 -Hd -2 -Ni 1 -Nx 500.00 -Ny 400.00 -Nz 0.00 -Ne -1.000000 -Nl MAC -Nw --- -Ma 0 -Md 0 -Ms 0 -Mt 0 
r -t 0.012512414 -Hs 0 -Hd -2 -Ni 0 -Nx 300.00 -Ny 400.00 -Nz 0.00 -Ne -1.000000 -Nl MAC -Nw --- -Ma 0 -Md 0 -Ms 0 -Mt 0 
s -t 0.016001698 -Hs 0 -Hd -2 -Ni 0 -Nx 300.00 -Ny 400.00 -Nz 0.00 -Ne -1.000000 -Nl MAC -Nw --- -Ma 0 -Md 0 -Ms 0 -Mt 0 
s -t 0.016057253 -Hs 0 -Hd -2 -Ni 0 -Nx 300.00 -Ny 400.00 -Nz 0.00 -Ne -1.000000 -Nl MAC -Nw --- -Ma 0 -Md 0 -Ms 0 -Mt 0 
r -t 0.016057919 -Hs 1 -Hd -2 -Ni 1 -Nx 500.00 -Ny 400.00 -Nz 0.00 -Ne -1.000000 -Nl MAC -Nw --- -Ma 0 -Md 0 -Ms 0 -Mt 0 
s -t 0.016112809 -Hs 0 -Hd -2 -Ni 0 -Nx 300.00 -Ny 400.00 -Nz 0.00 -Ne -1.000000 -Nl MAC -Nw --- -Ma 0 -Md 0 -Ms 0 -Mt 0 
r -t 0.016113475 -Hs 1 -Hd -2 -Ni 1 -Nx 500.00 -Ny 400.00 -Nz 0.00 -Ne -1.000000 -Nl MAC -Nw --- -Ma 0 -Md 0 -Ms 0 -Mt 0 
r -t 0.016169030 -Hs 1 -Hd -2 -Ni 1 -Nx 500.00 -Ny 400.00 -Nz 0.00 -Ne -1.000000 -Nl MAC -Nw --- -Ma 0 -Md 0 -Ms 0 -Mt 0 
s -t 0.017623370 -Hs 1 -Hd -2 -Ni 1 -Nx 500.00 -Ny 400.00 -Nz 0.00 -Ne -1.000000 -Nl MAC -Nw --- -Ma 0 -Md 0 -Ms 0 -Mt 0 
r -t 0.017630509 -Hs 0 -Hd -2 -Ni 0 -Nx 300.00 -Ny 400.00 -Nz 0.00 -Ne -1.000000 -Nl MAC -Nw --- -Ma 0 -Md 0 -Ms 0 -Mt 0 
s -t 0.021001698 -Hs 0 -Hd -2 -Ni 0 -Nx 300.00 -Ny 400.00 -Nz 0.00 -Ne -1.000000 -Nl MAC -Nw --- -Ma 0 -Md 0 -Ms 0 -Mt 0 
s -t 0.021057253 -Hs 0 -Hd -2 -Ni 0 -Nx 300.00 -Ny 400.00 -Nz 0.00 -Ne -1.000000 -Nl MAC -Nw --- -Ma 0 -Md 0 -Ms 0 -Mt 0 
r -t 0.021057919 -Hs 1 -Hd -2 -Ni 1 -Nx 500.00 -Ny 400.00 -Nz 0.00 -Ne -1.000000 -Nl MAC -Nw --- -Ma 0 -Md 0 -Ms 0 -Mt 0 
r -t 0.021113475 -Hs 1 -Hd -2 -Ni 1 -Nx 500.00 -Ny 400.00 -Nz 0.00 -Ne -1.000000 -Nl MAC -Nw --- -Ma 0 -Md 0 -Ms 0 -Mt 0 
s -t 0.022894725 -Hs 1 -Hd -2 -Ni 1 -Nx 500.00 -Ny 400.00 -Nz 0.00 -Ne -1.000000 -Nl MAC -Nw --- -Ma 0 -Md 0 -Ms 0 -Mt 0 
r -t 0.023062057 -Hs 0 -Hd -2 -Ni 0 -Nx 300.00 -Ny 400.00 -Nz 0.00 -Ne -1.000000 -Nl MAC -Nw --- -Ma 0 -Md 0 -Ms 0 -Mt 0 
s -t 0.026001698 -Hs 0 -Hd -2 -Ni 0 -Nx 300.00 -Ny 400.00 -Nz 0.00 -Ne -1.000000 -Nl MAC -Nw --- -Ma 0 -Md 0 -Ms 0 -Mt 0 
s -t 0.026057253 -Hs 0 -Hd -2 -Ni 0 -Nx 300.00 -Ny 400.00 -Nz 0.00 -Ne -1.000000 -Nl MAC -Nw --- -Ma 0 -Md 0 -Ms 0 -Mt 0 
r -t 0.026057919 -Hs 1 -Hd -2 -Ni 1 -Nx 500.00 -Ny 400.00 -Nz 0.00 -Ne -1.000000 -Nl MAC -Nw --- -Ma 0 -Md 0 -Ms 0 -Mt 0 
r -t 0.026113475 -Hs 1 -Hd -2 -Ni 1 -Nx 500.00 -Ny 400.00 -Nz 0.00 -Ne -1.000000 -Nl MAC -Nw --- -Ma 0 -Md 0 -Ms 0 -Mt 0 
s -t 0.026723920 -Hs 0 -Hd -2 -Ni 0 -Nx 300.00 -Ny 400.00 -Nz 0.00 -Ne -1.000000 -Nl MAC -Nw --- -Ma 0 -Md 0 -Ms 0 -Mt 0 
r -t 0.026891252 -Hs 1 -Hd -2 -Ni 1 -Nx 500.00 -Ny 400.00 -Nz 0.00 -Ne -1.000000 -Nl MAC -Nw --- -Ma 0 -Md 0 -Ms 0 -Mt 0 
s -t 0.027616947 -Hs 1 -Hd -2 -Ni 1 -Nx 500.00 -Ny 400.00 -Nz 0.00 -Ne -1.000000 -Nl MAC -Nw --- -Ma 0 -Md 0 -Ms 0 -Mt 0 
r -t 0.027624085 -Hs 0 -Hd -2 -Ni 0 -Nx 300.00 -Ny 400.00 -Nz 0.00 -Ne -1.000000 -Nl MAC -Nw --- -Ma 0 -Md 0 -Ms 0 -Mt 0 
s -t 0.031001698 -Hs 0 -Hd -2 -Ni 0 -Nx 300.00 -Ny 400.00 -Nz 0.00 -Ne -1.000000 -Nl MAC -Nw --- -Ma 0 -Md 0 -Ms 0 -Mt 0 
s -t 0.031057253 -Hs 0 -Hd -2 -Ni 0 -Nx 300.00 -Ny 400.00 -Nz 0.00 -Ne -1.000000 -Nl MAC -Nw --- -Ma 0 -Md 0 -Ms 0 -Mt 0 
r -t 0.031057919 -Hs 1 -Hd -2 -Ni 1 -Nx 500.00 -Ny 400.00 -Nz 0.00 -Ne -1.000000 -Nl MAC -Nw --- -Ma 0 -Md 0 -Ms 0 -Mt 0 
r -t 0.031113475 -Hs 1 -Hd -2 -Ni 1 -Nx 500.00 -Ny 400.00 -Nz 0.00 -Ne -1.000000 -Nl MAC -Nw --- -Ma 0 -Md 0 -Ms 0 -Mt 0 
s -t 0.032894725 -Hs 1 -Hd -2 -Ni 1 -Nx 500.00 -Ny 400.00 -Nz 0.00 -Ne -1.000000 -Nl MAC -Nw --- -Ma 0 -Md 0 -Ms 0 -Mt 0 
r -t 0.033062057 -Hs 0 -Hd -2 -Ni 0 -Nx 300.00 -Ny 400.00 -Nz 0.00 -Ne -1.000000 -Nl MAC -Nw --- -Ma 0 -Md 0 -Ms 0 -Mt 0 
s -t 0.036001698 -Hs 0 -Hd -2 -Ni 0 -Nx 300.00 -Ny 400.00 -Nz 0.00 -Ne -1.000000 -Nl MAC -Nw --- -Ma 0 -Md 0 -Ms 0 -Mt 0 
s -t 0.036057253 -Hs 0 -Hd -2 -Ni 0 -Nx 300.00 -Ny 400.00 -Nz 0.00 -Ne -1.000000 -Nl MAC -Nw --- -Ma 0 -Md 0 -Ms 0 -Mt 0 
r -t 0.036057919 -Hs 1 -Hd -2 -Ni 1 -Nx 500.00 -Ny 400.00 -Nz 0.00 -Ne -1.000000 -Nl MAC -Nw --- -Ma 0 -Md 0 -Ms 0 -Mt 0 
r -t 0.036113475 -Hs 1 -Hd -2 -Ni 1 -Nx 500.00 -Ny 400.00 -Nz 0.00 -Ne -1.000000 -Nl MAC -Nw --- -Ma 0 -Md 0 -Ms 0 -Mt 0 
s -t 0.036723920 -Hs 0 -Hd -2 -Ni 0 -Nx 300.00 -Ny 400.00 -Nz 0.00 -Ne -1.000000 -Nl MAC -Nw --- -Ma 0 -Md 0 -Ms 0 -Mt 0 
r -t 0.036891252 -Hs 1 -Hd -2 -Ni 1 -Nx 500.00 -Ny 400.00 -Nz 0.00 -Ne -1.000000 -Nl MAC -Nw --- -Ma 0 -Md 0 -Ms 0 -Mt 0 
s -t 0.037636218 -Hs 1 -Hd -2 -Ni 1 -Nx 500.00 -Ny 400.00 -Nz 0.00 -Ne -1.000000 -Nl MAC -Nw --- -Ma 0 -Md 0 -Ms 0 -Mt 0 
r -t 0.037643356 -Hs 0 -Hd -2 -Ni 0 -Nx 300.00 -Ny 400.00 -Nz 0.00 -Ne -1.000000 -Nl MAC -Nw --- -Ma 0 -Md 0 -Ms 0 -Mt 0 
s -t 0.041001698 -Hs 0 -Hd -2 -Ni 0 -Nx 300.00 -Ny 400.00 -Nz 0.00 -Ne -1.000000 -Nl MAC -Nw --- -Ma 0 -Md 0 -Ms 0 -Mt 0 
s -t 0.041057253 -Hs 0 -Hd -2 -Ni 0 -Nx 300.00 -Ny 400.00 -Nz 0.00 -Ne -1.000000 -Nl MAC -Nw --- -Ma 0 -Md 0 -Ms 0 -Mt 0 
r -t 0.041057919 -Hs 1 -Hd -2 -Ni 1 -Nx 500.00 -Ny 400.00 -Nz 0.00 -Ne -1.000000 -Nl MAC -Nw --- -Ma 0 -Md 0 -Ms 0 -Mt 0 
r -t 0.041113475 -Hs 1 -Hd -2 -Ni 1 -Nx 500.00 -Ny 400.00 -Nz 0.00 -Ne -1.000000 -Nl MAC -Nw --- -Ma 0 -Md 0 -Ms 0 -Mt 0 
s -t 0.042894725 -Hs 1 -Hd -2 -Ni 1 -Nx 500.00 -Ny 400.00 -Nz 0.00 -Ne -1.000000 -Nl MAC -Nw --- -Ma 0 -Md 0 -Ms 0 -Mt 0 
r -t 0.043062057 -Hs 0 -Hd -2 -Ni 0 -Nx 300.00 -Ny 400.00 -Nz 0.00 -Ne -1.000000 -Nl MAC -Nw --- -Ma 0 -Md 0 -Ms 0 -Mt 0 
s -t 0.046001698 -Hs 0 -Hd -2 -Ni 0 -Nx 300.00 -Ny 400.00 -Nz 0.00 -Ne -1.000000 -Nl MAC -Nw --- -Ma 0 -Md 0 -Ms 0 -Mt 0 
s -t 0.046057253 -Hs 0 -Hd -2 -Ni 0 -Nx 300.00 -Ny 400.00 -Nz 0.00 -Ne -1.000000 -Nl MAC -Nw --- -Ma 0 -Md 0 -Ms 0 -Mt 0 
r -t 0.046057919 -Hs 1 -Hd -2 -Ni 1 -Nx 500.00 -Ny 400.00 -Nz 0.00 -Ne -1.000000 -Nl MAC -Nw --- -Ma 0 -Md 0 -Ms 0 -Mt 0 
r -t 0.046113475 -Hs 1 -Hd -2 -Ni 1 -Nx 500.00 -Ny 400.00 -Nz 0.00 -Ne -1.000000 -Nl MAC -Nw --- -Ma 0 -Md 0 -Ms 0 -Mt 0 
s -t 0.051001698 -Hs 0 -Hd -2 -Ni 0 -Nx 300.00 -Ny 400.00 -Nz 0.00 -Ne -1.000000 -Nl MAC -Nw --- -Ma 0 -Md 0 -Ms 0 -Mt 0 
s -t 0.051057253 -Hs 0 -Hd -2 -Ni 0 -Nx 300.00 -Ny 400.00 -Nz 0.00 -Ne -1.000000 -Nl MAC -Nw --- -Ma 0 -Md 0 -Ms 0 -Mt 0 
r -t 0.051057919 -Hs 1 -Hd -2 -Ni 1 -Nx 500.00 -Ny 400.00 -Nz 0.00 -Ne -1.000000 -Nl MAC -Nw --- -Ma 0 -Md 0 -Ms 0 -Mt 0 
r -t 0.051113475 -Hs 1 -Hd -2 -Ni 1 -Nx 500.00 -Ny 400.00 -Nz 0.00 -Ne -1.000000 -Nl MAC -Nw --- -Ma 0 -Md 0 -Ms 0 -Mt 0 
s -t 0.056001698 -Hs 0 -Hd -2 -Ni 0 -Nx 300.00 -Ny 400.00 -Nz 0.00 -Ne -1.000000 -Nl MAC -Nw --- -Ma 0 -Md 0 -Ms 0 -Mt 0 
s -t 0.056057253 -Hs 0 -Hd -2 -Ni 0 -Nx 300.00 -Ny 400.00 -Nz 0.00 -Ne -1.000000 -Nl MAC -Nw --- -Ma 0 -Md 0 -Ms 0 -Mt 0 
r -t 0.056057919 -Hs 1 -Hd -2 -Ni 1 -Nx 500.00 -Ny 400.00 -Nz 0.00 -Ne -1.000000 -Nl MAC -Nw --- -Ma 0 -Md 0 -Ms 0 -Mt 0 
r -t 0.056113475 -Hs 1 -Hd -2 -Ni 1 -Nx 500.00 -Ny 400.00 -Nz 0.00 -Ne -1.000000 -Nl MAC -Nw --- -Ma 0 -Md 0 -Ms 0 -Mt 0 
s -t 0.061001698 -Hs 0 -Hd -2 -Ni 0 -Nx 300.00 -Ny 400.00 -Nz 0.00 -Ne -1.000000 -Nl MAC -Nw --- -Ma 0 -Md 0 -Ms 0 -Mt 0 
s -t 0.061057253 -Hs 0 -Hd -2 -Ni 0 -Nx 300.00 -Ny 400.00 -Nz 0.00 -Ne -1.000000 -Nl MAC -Nw --- -Ma 0 -Md 0 -Ms 0 -Mt 0 
r -t 0.061057919 -Hs 1 -Hd -2 -Ni 1 -Nx 500.00 -Ny 400.00 -Nz 0.00 -Ne -1.000000 -Nl MAC -Nw --- -Ma 0 -Md 0 -Ms 0 -Mt 0 
r -t 0.061113475 -Hs 1 -Hd -2 -Ni 1 -Nx 500.00 -Ny 400.00 -Nz 0.00 -Ne -1.000000 -Nl MAC -Nw --- -Ma 0 -Md 0 -Ms 0 -Mt 0 
s -t 0.066001698 -Hs 0 -Hd -2 -Ni 0 -Nx 300.00 -Ny 400.00 -Nz 0.00 -Ne -1.000000 -Nl MAC -Nw --- -Ma 0 -Md 0 -Ms 0 -Mt 0 
s -t 0.066057253 -Hs 0 -Hd -2 -Ni 0 -Nx 300.00 -Ny 400.00 -Nz 0.00 -Ne -1.000000 -Nl MAC -Nw --- -Ma 0 -Md 0 -Ms 0 -Mt 0 
r -t 0.066057919 -Hs 1 -Hd -2 -Ni 1 -Nx 500.00 -Ny 400.00 -Nz 0.00 -Ne -1.000000 -Nl MAC -Nw --- -Ma 0 -Md 0 -Ms 0 -Mt 0 
r -t 0.066113475 -Hs 1 -Hd -2 -Ni 1 -Nx 500.00 -Ny 400.00 -Nz 0.00 -Ne -1.000000 -Nl MAC -Nw --- -Ma 0 -Md 0 -Ms 0 -Mt 0 
s -t 0.071001698 -Hs 0 -Hd -2 -Ni 0 -Nx 300.00 -Ny 400.00 -Nz 0.00 -Ne -1.000000 -Nl MAC -Nw --- -Ma 0 -Md 0 -Ms 0 -Mt 0 
s -t 0.071057253 -Hs 0 -Hd -2 -Ni 0 -Nx 300.00 -Ny 400.00 -Nz 0.00 -Ne -1.000000 -Nl MAC -Nw --- -Ma 0 -Md 0 -Ms 0 -Mt 0 
r -t 0.071057919 -Hs 1 -Hd -2 -Ni 1 -Nx 500.00 -Ny 400.00 -Nz 0.00 -Ne -1.000000 -Nl MAC -Nw --- -Ma 0 -Md 0 -Ms 0 -Mt 0 
r -t 0.071113475 -Hs 1 -Hd -2 -Ni 1 -Nx 500.00 -Ny 400.00 -Nz 0.00 -Ne -1.000000 -Nl MAC -Nw --- -Ma 0 -Md 0 -Ms 0 -Mt 0 
s -t 0.076001698 -Hs 0 -Hd -2 -Ni 0 -Nx 300.00 -Ny 400.00 -Nz 0.00 -Ne -1.000000 -Nl MAC -Nw --- -Ma 0 -Md 0 -Ms 0 -Mt 0 
s -t 0.076057253 -Hs 0 -Hd -2 -Ni 0 -Nx 300.00 -Ny 400.00 -Nz 0.00 -Ne -1.000000 -Nl MAC -Nw --- -Ma 0 -Md 0 -Ms 0 -Mt 0 
r -t 0.076057919 -Hs 1 -Hd -2 -Ni 1 -Nx 500.00 -Ny 400.00 -Nz 0.00 -Ne -1.000000 -Nl MAC -Nw --- -Ma 0 -Md 0 -Ms 0 -Mt 0 
r -t 0.076113475 -Hs 1 -Hd -2 -Ni 1 -Nx 500.00 -Ny 400.00 -Nz 0.00 -Ne -1.000000 -Nl MAC -Nw --- -Ma 0 -Md 0 -Ms 0 -Mt 0 
s -t 0.081001698 -Hs 0 -Hd -2 -Ni 0 -Nx 300.00 -Ny 400.00 -Nz 0.00 -Ne -1.000000 -Nl MAC -Nw --- -Ma 0 -Md 0 -Ms 0 -Mt 0 
s -t 0.081057253 -Hs 0 -Hd -2 -Ni 0 -Nx 300.00 -Ny 400.00 -Nz 0.00 -Ne -1.000000 -Nl MAC -Nw --- -Ma 0 -Md 0 -Ms 0 -Mt 0 
r -t 0.081057919 -Hs 1 -Hd -2 -Ni 1 -Nx 500.00 -Ny 400.00 -Nz 0.00 -Ne -1.000000 -Nl MAC -Nw --- -Ma 0 -Md 0 -Ms 0 -Mt 0 
r -t 0.081113475 -Hs 1 -Hd -2 -Ni 1 -Nx 500.00 -Ny 400.00 -Nz 0.00 -Ne -1.000000 -Nl MAC -Nw --- -Ma 0 -Md 0 -Ms 0 -Mt 0 
s -t 0.086001698 -Hs 0 -Hd -2 -Ni 0 -Nx 300.00 -Ny 400.00 -Nz 0.00 -Ne -1.000000 -Nl MAC -Nw --- -Ma 0 -Md 0 -Ms 0 -Mt 0 
s -t 0.086057253 -Hs 0 -Hd -2 -Ni 0 -Nx 300.00 -Ny 400.00 -Nz 0.00 -Ne -1.000000 -Nl MAC -Nw --- -Ma 0 -Md 0 -Ms 0 -Mt 0 
r -t 0.086057919 -Hs 1 -Hd -2 -Ni 1 -Nx 500.00 -Ny 400.00 -Nz 0.00 -Ne -1.000000 -Nl MAC -Nw --- -Ma 0 -Md 0 -Ms 0 -Mt 0 
r -t 0.086113475 -Hs 1 -Hd -2 -Ni 1 -Nx 500.00 -Ny 400.00 -Nz 0.00 -Ne -1.000000 -Nl MAC -Nw --- -Ma 0 -Md 0 -Ms 0 -Mt 0 
s -t 0.091001698 -Hs 0 -Hd -2 -Ni 0 -Nx 300.00 -Ny 400.00 -Nz 0.00 -Ne -1.000000 -Nl MAC -Nw --- -Ma 0 -Md 0 -Ms 0 -Mt 0 
s -t 0.091057253 -Hs 0 -Hd -2 -Ni 0 -Nx 300.00 -Ny 400.00 -Nz 0.00 -Ne -1.000000 -Nl MAC -Nw --- -Ma 0 -Md 0 -Ms 0 -Mt 0 
r -t 0.091057919 -Hs 1 -Hd -2 -Ni 1 -Nx 500.00 -Ny 400.00 -Nz 0.00 -Ne -1.000000 -Nl MAC -Nw --- -Ma 0 -Md 0 -Ms 0 -Mt 0 
r -t 0.091113475 -Hs 1 -Hd -2 -Ni 1 -Nx 500.00 -Ny 400.00 -Nz 0.00 -Ne -1.000000 -Nl MAC -Nw --- -Ma 0 -Md 0 -Ms 0 -Mt 0 
s -t 0.096001698 -Hs 0 -Hd -2 -Ni 0 -Nx 300.00 -Ny 400.00 -Nz 0.00 -Ne -1.000000 -Nl MAC -Nw --- -Ma 0 -Md 0 -Ms 0 -Mt 0 
s -t 0.096057253 -Hs 0 -Hd -2 -Ni 0 -Nx 300.00 -Ny 400.00 -Nz 0.00 -Ne -1.000000 -Nl MAC -Nw --- -Ma 0 -Md 0 -Ms 0 -Mt 0 
r -t 0.096057919 -Hs 1 -Hd -2 -Ni 1 -Nx 500.00 -Ny 400.00 -Nz 0.00 -Ne -1.000000 -Nl MAC -Nw --- -Ma 0 -Md 0 -Ms 0 -Mt 0 
r -t 0.096113475 -Hs 1 -Hd -2 -Ni 1 -Nx 500.00 -Ny 400.00 -Nz 0.00 -Ne -1.000000 -Nl MAC -Nw --- -Ma 0 -Md 0 -Ms 0 -Mt 0 
s -t 0.101001698 -Hs 0 -Hd -2 -Ni 0 -Nx 300.00 -Ny 400.00 -Nz 0.00 -Ne -1.000000 -Nl MAC -Nw --- -Ma 0 -Md 0 -Ms 0 -Mt 0 
s -t 0.101057253 -Hs 0 -Hd -2 -Ni 0 -Nx 300.00 -Ny 400.00 -Nz 0.00 -Ne -1.000000 -Nl MAC -Nw --- -Ma 0 -Md 0 -Ms 0 -Mt 0 
r -t 0.101057919 -Hs 1 -Hd -2 -Ni 1 -Nx 500.00 -Ny 400.00 -Nz 0.00 -Ne -1.000000 -Nl MAC -Nw --- -Ma 0 -Md 0 -Ms 0 -Mt 0 
r -t 0.101113475 -Hs 1 -Hd -2 -Ni 1 -Nx 500.00 -Ny 400.00 -Nz 0.00 -Ne -1.000000 -Nl MAC -Nw --- -Ma 0 -Md 0 -Ms 0 -Mt 0 
s -t 0.106001698 -Hs 0 -Hd -2 -Ni 0 -Nx 300.00 -Ny 400.00 -Nz 0.00 -Ne -1.000000 -Nl MAC -Nw --- -Ma 0 -Md 0 -Ms 0 -Mt 0 
s -t 0.106057253 -Hs 0 -Hd -2 -Ni 0 -Nx 300.00 -Ny 400.00 -Nz 0.00 -Ne -1.000000 -Nl MAC -Nw --- -Ma 0 -Md 0 -Ms 0 -Mt 0 
r -t 0.106057919 -Hs 1 -Hd -2 -Ni 1 -Nx 500.00 -Ny 400.00 -Nz 0.00 -Ne -1.000000 -Nl MAC -Nw --- -Ma 0 -Md 0 -Ms 0 -Mt 0 
r -t 0.106113475 -Hs 1 -Hd -2 -Ni 1 -Nx 500.00 -Ny 400.00 -Nz 0.00 -Ne -1.000000 -Nl MAC -Nw --- -Ma 0 -Md 0 -Ms 0 -Mt 0 
s -t 0.111001698 -Hs 0 -Hd -2 -Ni 0 -Nx 300.00 -Ny 400.00 -Nz 0.00 -Ne -1.000000 -Nl MAC -Nw --- -Ma 0 -Md 0 -Ms 0 -Mt 0 
s -t 0.111057253 -Hs 0 -Hd -2 -Ni 0 -Nx 300.00 -Ny 400.00 -Nz 0.00 -Ne -1.000000 -Nl MAC -Nw --- -Ma 0 -Md 0 -Ms 0 -Mt 0 
r -t 0.111057919 -Hs 1 -Hd -2 -Ni 1 -Nx 500.00 -Ny 400.00 -Nz 0.00 -Ne -1.000000 -Nl MAC -Nw --- -Ma 0 -Md 0 -Ms 0 -Mt 0 
r -t 0.111113475 -Hs 1 -Hd -2 -Ni 1 -Nx 500.00 -Ny 400.00 -Nz 0.00 -Ne -1.000000 -Nl MAC -Nw --- -Ma 0 -Md 0 -Ms 0 -Mt 0 
s -t 0.116001698 -Hs 0 -Hd -2 -Ni 0 -Nx 300.00 -Ny 400.00 -Nz 0.00 -Ne -1.000000 -Nl MAC -Nw --- -Ma 0 -Md 0 -Ms 0 -Mt 0 
s -t 0.116057253 -Hs 0 -Hd -2 -Ni 0 -Nx 300.00 -Ny 400.00 -Nz 0.00 -Ne -1.000000 -Nl MAC -Nw --- -Ma 0 -Md 0 -Ms 0 -Mt 0 
r -t 0.116057919 -Hs 1 -Hd -2 -Ni 1 -Nx 500.00 -Ny 400.00 -Nz 0.00 -Ne -1.000000 -Nl MAC -Nw --- -Ma 0 -Md 0 -Ms 0 -Mt 0 
r -t 0.116113475 -Hs 1 -Hd -2 -Ni 1 -Nx 500.00 -Ny 400.00 -Nz 0.00 -Ne -1.000000 -Nl MAC -Nw --- -Ma 0 -Md 0 -Ms 0 -Mt 0 
s -t 0.121001698 -Hs 0 -Hd -2 -Ni 0 -Nx 300.00 -Ny 400.00 -Nz 0.00 -Ne -1.000000 -Nl MAC -Nw --- -Ma 0 -Md 0 -Ms 0 -Mt 0 
s -t 0.121057253 -Hs 0 -Hd -2 -Ni 0 -Nx 300.00 -Ny 400.00 -Nz 0.00 -Ne -1.000000 -Nl MAC -Nw --- -Ma 0 -Md 0 -Ms 0 -Mt 0 
r -t 0.121057919 -Hs 1 -Hd -2 -Ni 1 -Nx 500.00 -Ny 400.00 -Nz 0.00 -Ne -1.000000 -Nl MAC -Nw --- -Ma 0 -Md 0 -Ms 0 -Mt 0 
r -t 0.121113475 -Hs 1 -Hd -2 -Ni 1 -Nx 500.00 -Ny 400.00 -Nz 0.00 -Ne -1.000000 -Nl MAC -Nw --- -Ma 0 -Md 0 -Ms 0 -Mt 0 
s -t 0.126001698 -Hs 0 -Hd -2 -Ni 0 -Nx 300.00 -Ny 400.00 -Nz 0.00 -Ne -1.000000 -Nl MAC -Nw --- -Ma 0 -Md 0 -Ms 0 -Mt 0 
s -t 0.126057253 -Hs 0 -Hd -2 -Ni 0 -Nx 300.00 -Ny 400.00 -Nz 0.00 -Ne -1.000000 -Nl MAC -Nw --- -Ma 0 -Md 0 -Ms 0 -Mt 0 
r -t 0.126057919 -Hs 1 -Hd -2 -Ni 1 -Nx 500.00 -Ny 400.00 -Nz 0.00 -Ne -1.000000 -Nl MAC -Nw --- -Ma 0 -Md 0 -Ms 0 -Mt 0 
r -t 0.126113475 -Hs 1 -Hd -2 -Ni 1 -Nx 500.00 -Ny 400.00 -Nz 0.00 -Ne -1.000000 -Nl MAC -Nw --- -Ma 0 -Md 0 -Ms 0 -Mt 0 
s -t 0.131001698 -Hs 0 -Hd -2 -Ni 0 -Nx 300.00 -Ny 400.00 -Nz 0.00 -Ne -1.000000 -Nl MAC -Nw --- -Ma 0 -Md 0 -Ms 0 -Mt 0 
s -t 0.131057253 -Hs 0 -Hd -2 -Ni 0 -Nx 300.00 -Ny 400.00 -Nz 0.00 -Ne -1.000000 -Nl MAC -Nw --- -Ma 0 -Md 0 -Ms 0 -Mt 0 
r -t 0.131057919 -Hs 1 -Hd -2 -Ni 1 -Nx 500.00 -Ny 400.00 -Nz 0.00 -Ne -1.000000 -Nl MAC -Nw --- -Ma 0 -Md 0 -Ms 0 -Mt 0 
r -t 0.131113475 -Hs 1 -Hd -2 -Ni 1 -Nx 500.00 -Ny 400.00 -Nz 0.00 -Ne -1.000000 -Nl MAC -Nw --- -Ma 0 -Md 0 -Ms 0 -Mt 0 
s -t 0.136001698 -Hs 0 -Hd -2 -Ni 0 -Nx 300.00 -Ny 400.00 -Nz 0.00 -Ne -1.000000 -Nl MAC -Nw --- -Ma 0 -Md 0 -Ms 0 -Mt 0 
s -t 0.136057253 -Hs 0 -Hd -2 -Ni 0 -Nx 300.00 -Ny 400.00 -Nz 0.00 -Ne -1.000000 -Nl MAC -Nw --- -Ma 0 -Md 0 -Ms 0 -Mt 0 
r -t 0.136057919 -Hs 1 -Hd -2 -Ni 1 -Nx 500.00 -Ny 400.00 -Nz 0.00 -Ne -1.000000 -Nl MAC -Nw --- -Ma 0 -Md 0 -Ms 0 -Mt 0 
r -t 0.136113475 -Hs 1 -Hd -2 -Ni 1 -Nx 500.00 -Ny 400.00 -Nz 0.00 -Ne -1.000000 -Nl MAC -Nw --- -Ma 0 -Md 0 -Ms 0 -Mt 0 
s -t 0.141001698 -Hs 0 -Hd -2 -Ni 0 -Nx 300.00 -Ny 400.00 -Nz 0.00 -Ne -1.000000 -Nl MAC -Nw --- -Ma 0 -Md 0 -Ms 0 -Mt 0 
s -t 0.141057253 -Hs 0 -Hd -2 -Ni 0 -Nx 300.00 -Ny 400.00 -Nz 0.00 -Ne -1.000000 -Nl MAC -Nw --- -Ma 0 -Md 0 -Ms 0 -Mt 0 
r -t 0.141057919 -Hs 1 -Hd -2 -Ni 1 -Nx 500.00 -Ny 400.00 -Nz 0.00 -Ne -1.000000 -Nl MAC -Nw --- -Ma 0 -Md 0 -Ms 0 -Mt 0 
r -t 0.141113475 -Hs 1 -Hd -2 -Ni 1 -Nx 500.00 -Ny 400.00 -Nz 0.00 -Ne -1.000000 -Nl MAC -Nw --- -Ma 0 -Md 0 -Ms 0 -Mt 0 
s -t 0.146001698 -Hs 0 -Hd -2 -Ni 0 -Nx 300.00 -Ny 400.00 -Nz 0.00 -Ne -1.000000 -Nl MAC -Nw --- -Ma 0 -Md 0 -Ms 0 -Mt 0 
s -t 0.146057253 -Hs 0 -Hd -2 -Ni 0 -Nx 300.00 -Ny 400.00 -Nz 0.00 -Ne -1.000000 -Nl MAC -Nw --- -Ma 0 -Md 0 -Ms 0 -Mt 0 
r -t 0.146057919 -Hs 1 -Hd -2 -Ni 1 -Nx 500.00 -Ny 400.00 -Nz 0.00 -Ne -1.000000 -Nl MAC -Nw --- -Ma 0 -Md 0 -Ms 0 -Mt 0 
r -t 0.146113475 -Hs 1 -Hd -2 -Ni 1 -Nx 500.00 -Ny 400.00 -Nz 0.00 -Ne -1.000000 -Nl MAC -Nw --- -Ma 0 -Md 0 -Ms 0 -Mt 0 
s -t 0.151001698 -Hs 0 -Hd -2 -Ni 0 -Nx 300.00 -Ny 400.00 -Nz 0.00 -Ne -1.000000 -Nl MAC -Nw --- -Ma 0 -Md 0 -Ms 0 -Mt 0 
s -t 0.151057253 -Hs 0 -Hd -2 -Ni 0 -Nx 300.00 -Ny 400.00 -Nz 0.00 -Ne -1.000000 -Nl MAC -Nw --- -Ma 0 -Md 0 -Ms 0 -Mt 0 
r -t 0.151057919 -Hs 1 -Hd -2 -Ni 1 -Nx 500.00 -Ny 400.00 -Nz 0.00 -Ne -1.000000 -Nl MAC -Nw --- -Ma 0 -Md 0 -Ms 0 -Mt 0 
r -t 0.151113475 -Hs 1 -Hd -2 -Ni 1 -Nx 500.00 -Ny 400.00 -Nz 0.00 -Ne -1.000000 -Nl MAC -Nw --- -Ma 0 -Md 0 -Ms 0 -Mt 0 
s -t 0.156001698 -Hs 0 -Hd -2 -Ni 0 -Nx 300.00 -Ny 400.00 -Nz 0.00 -Ne -1.000000 -Nl MAC -Nw --- -Ma 0 -Md 0 -Ms 0 -Mt 0 
s -t 0.156057253 -Hs 0 -Hd -2 -Ni 0 -Nx 300.00 -Ny 400.00 -Nz 0.00 -Ne -1.000000 -Nl MAC -Nw --- -Ma 0 -Md 0 -Ms 0 -Mt 0 
r -t 0.156057919 -Hs 1 -Hd -2 -Ni 1 -Nx 500.00 -Ny 400.00 -Nz 0.00 -Ne -1.000000 -Nl MAC -Nw --- -Ma 0 -Md 0 -Ms 0 -Mt 0 
r -t 0.156113475 -Hs 1 -Hd -2 -Ni 1 -Nx 500.00 -Ny 400.00 -Nz 0.00 -Ne -1.000000 -Nl MAC -Nw --- -Ma 0 -Md 0 -Ms 0 -Mt 0 
s -t 0.161001698 -Hs 0 -Hd -2 -Ni 0 -Nx 300.00 -Ny 400.00 -Nz 0.00 -Ne -1.000000 -Nl MAC -Nw --- -Ma 0 -Md 0 -Ms 0 -Mt 0 
s -t 0.161057253 -Hs 0 -Hd -2 -Ni 0 -Nx 300.00 -Ny 400.00 -Nz 0.00 -Ne -1.000000 -Nl MAC -Nw --- -Ma 0 -Md 0 -Ms 0 -Mt 0 
r -t 0.161057919 -Hs 1 -Hd -2 -Ni 1 -Nx 500.00 -Ny 400.00 -Nz 0.00 -Ne -1.000000 -Nl MAC -Nw --- -Ma 0 -Md 0 -Ms 0 -Mt 0 
r -t 0.161113475 -Hs 1 -Hd -2 -Ni 1 -Nx 500.00 -Ny 400.00 -Nz 0.00 -Ne -1.000000 -Nl MAC -Nw --- -Ma 0 -Md 0 -Ms 0 -Mt 0 
s -t 0.166001698 -Hs 0 -Hd -2 -Ni 0 -Nx 300.00 -Ny 400.00 -Nz 0.00 -Ne -1.000000 -Nl MAC -Nw --- -Ma 0 -Md 0 -Ms 0 -Mt 0 
s -t 0.166057253 -Hs 0 -Hd -2 -Ni 0 -Nx 300.00 -Ny 400.00 -Nz 0.00 -Ne -1.000000 -Nl MAC -Nw --- -Ma 0 -Md 0 -Ms 0 -Mt 0 
r -t 0.166057919 -Hs 1 -Hd -2 -Ni 1 -Nx 500.00 -Ny 400.00 -Nz 0.00 -Ne -1.000000 -Nl MAC -Nw --- -Ma 0 -Md 0 -Ms 0 -Mt 0 
r -t 0.166113475 -Hs 1 -Hd -2 -Ni 1 -Nx 500.00 -Ny 400.00 -Nz 0.00 -Ne -1.000000 -Nl MAC -Nw --- -Ma 0 -Md 0 -Ms 0 -Mt 0 
s -t 0.171001698 -Hs 0 -Hd -2 -Ni 0 -Nx 300.00 -Ny 400.00 -Nz 0.00 -Ne -1.000000 -Nl MAC -Nw --- -Ma 0 -Md 0 -Ms 0 -Mt 0 
s -t 0.171057253 -Hs 0 -Hd -2 -Ni 0 -Nx 300.00 -Ny 400.00 -Nz 0.00 -Ne -1.000000 -Nl MAC -Nw --- -Ma 0 -Md 0 -Ms 0 -Mt 0 
r -t 0.171057919 -Hs 1 -Hd -2 -Ni 1 -Nx 500.00 -Ny 400.00 -Nz 0.00 -Ne -1.000000 -Nl MAC -Nw --- -Ma 0 -Md 0 -Ms 0 -Mt 0 
r -t 0.171113475 -Hs 1 -Hd -2 -Ni 1 -Nx 500.00 -Ny 400.00 -Nz 0.00 -Ne -1.000000 -Nl MAC -Nw --- -Ma 0 -Md 0 -Ms 0 -Mt 0 
s -t 0.176001698 -Hs 0 -Hd -2 -Ni 0 -Nx 300.00 -Ny 400.00 -Nz 0.00 -Ne -1.000000 -Nl MAC -Nw --- -Ma 0 -Md 0 -Ms 0 -Mt 0 
s -t 0.176057253 -Hs 0 -Hd -2 -Ni 0 -Nx 300.00 -Ny 400.00 -Nz 0.00 -Ne -1.000000 -Nl MAC -Nw --- -Ma 0 -Md 0 -Ms 0 -Mt 0 
r -t 0.176057919 -Hs 1 -Hd -2 -Ni 1 -Nx 500.00 -Ny 400.00 -Nz 0.00 -Ne -1.000000 -Nl MAC -Nw --- -Ma 0 -Md 0 -Ms 0 -Mt 0 
r -t 0.176113475 -Hs 1 -Hd -2 -Ni 1 -Nx 500.00 -Ny 400.00 -Nz 0.00 -Ne -1.000000 -Nl MAC -Nw --- -Ma 0 -Md 0 -Ms 0 -Mt 0 
s -t 0.181001698 -Hs 0 -Hd -2 -Ni 0 -Nx 300.00 -Ny 400.00 -Nz 0.00 -Ne -1.000000 -Nl MAC -Nw --- -Ma 0 -Md 0 -Ms 0 -Mt 0 
s -t 0.181057253 -Hs 0 -Hd -2 -Ni 0 -Nx 300.00 -Ny 400.00 -Nz 0.00 -Ne -1.000000 -Nl MAC -Nw --- -Ma 0 -Md 0 -Ms 0 -Mt 0 
r -t 0.181057919 -Hs 1 -Hd -2 -Ni 1 -Nx 500.00 -Ny 400.00 -Nz 0.00 -Ne -1.000000 -Nl MAC -Nw --- -Ma 0 -Md 0 -Ms 0 -Mt 0 
r -t 0.181113475 -Hs 1 -Hd -2 -Ni 1 -Nx 500.00 -Ny 400.00 -Nz 0.00 -Ne -1.000000 -Nl MAC -Nw --- -Ma 0 -Md 0 -Ms 0 -Mt 0 
s -t 0.186001698 -Hs 0 -Hd -2 -Ni 0 -Nx 300.00 -Ny 400.00 -Nz 0.00 -Ne -1.000000 -Nl MAC -Nw --- -Ma 0 -Md 0 -Ms 0 -Mt 0 
s -t 0.186057253 -Hs 0 -Hd -2 -Ni 0 -Nx 300.00 -Ny 400.00 -Nz 0.00 -Ne -1.000000 -Nl MAC -Nw --- -Ma 0 -Md 0 -Ms 0 -Mt 0 
r -t 0.186057919 -Hs 1 -Hd -2 -Ni 1 -Nx 500.00 -Ny 400.00 -Nz 0.00 -Ne -1.000000 -Nl MAC -Nw --- -Ma 0 -Md 0 -Ms 0 -Mt 0 
r -t 0.186113475 -Hs 1 -Hd -2 -Ni 1 -Nx 500.00 -Ny 400.00 -Nz 0.00 -Ne -1.000000 -Nl MAC -Nw --- -Ma 0 -Md 0 -Ms 0 -Mt 0 
s -t 0.191001698 -Hs 0 -Hd -2 -Ni 0 -Nx 300.00 -Ny 400.00 -Nz 0.00 -Ne -1.000000 -Nl MAC -Nw --- -Ma 0 -Md 0 -Ms 0 -Mt 0 
s -t 0.191057253 -Hs 0 -Hd -2 -Ni 0 -Nx 300.00 -Ny 400.00 -Nz 0.00 -Ne -1.000000 -Nl MAC -Nw --- -Ma 0 -Md 0 -Ms 0 -Mt 0 
r -t 0.191057919 -Hs 1 -Hd -2 -Ni 1 -Nx 500.00 -Ny 400.00 -Nz 0.00 -Ne -1.000000 -Nl MAC -Nw --- -Ma 0 -Md 0 -Ms 0 -Mt 0 
r -t 0.191113475 -Hs 1 -Hd -2 -Ni 1 -Nx 500.00 -Ny 400.00 -Nz 0.00 -Ne -1.000000 -Nl MAC -Nw --- -Ma 0 -Md 0 -Ms 0 -Mt 0 
s -t 0.196001698 -Hs 0 -Hd -2 -Ni 0 -Nx 300.00 -Ny 400.00 -Nz 0.00 -Ne -1.000000 -Nl MAC -Nw --- -Ma 0 -Md 0 -Ms 0 -Mt 0 
s -t 0.196057253 -Hs 0 -Hd -2 -Ni 0 -Nx 300.00 -Ny 400.00 -Nz 0.00 -Ne -1.000000 -Nl MAC -Nw --- -Ma 0 -Md 0 -Ms 0 -Mt 0 
r -t 0.196057919 -Hs 1 -Hd -2 -Ni 1 -Nx 500.00 -Ny 400.00 -Nz 0.00 -Ne -1.000000 -Nl MAC -Nw --- -Ma 0 -Md 0 -Ms 0 -Mt 0 
r -t 0.196113475 -Hs 1 -Hd -2 -Ni 1 -Nx 500.00 -Ny 400.00 -Nz 0.00 -Ne -1.000000 -Nl MAC -Nw --- -Ma 0 -Md 0 -Ms 0 -Mt 0 
s -t 0.201001698 -Hs 0 -Hd -2 -Ni 0 -Nx 300.00 -Ny 400.00 -Nz 0.00 -Ne -1.000000 -Nl MAC -Nw --- -Ma 0 -Md 0 -Ms 0 -Mt 0 
s -t 0.201057253 -Hs 0 -Hd -2 -Ni 0 -Nx 300.00 -Ny 400.00 -Nz 0.00 -Ne -1.000000 -Nl MAC -Nw --- -Ma 0 -Md 0 -Ms 0 -Mt 0 
r -t 0.201057919 -Hs 1 -Hd -2 -Ni 1 -Nx 500.00 -Ny 400.00 -Nz 0.00 -Ne -1.000000 -Nl MAC -Nw --- -Ma 0 -Md 0 -Ms 0 -Mt 0 
r -t 0.201113475 -Hs 1 -Hd -2 -Ni 1 -Nx 500.00 -Ny 400.00 -Nz 0.00 -Ne -1.000000 -Nl MAC -Nw --- -Ma 0 -Md 0 -Ms 0 -Mt 0 
s -t 0.206001698 -Hs 0 -Hd -2 -Ni 0 -Nx 300.00 -Ny 400.00 -Nz 0.00 -Ne -1.000000 -Nl MAC -Nw --- -Ma 0 -Md 0 -Ms 0 -Mt 0 
s -t 0.206057253 -Hs 0 -Hd -2 -Ni 0 -Nx 300.00 -Ny 400.00 -Nz 0.00 -Ne -1.000000 -Nl MAC -Nw --- -Ma 0 -Md 0 -Ms 0 -Mt 0 
r -t 0.206057919 -Hs 1 -Hd -2 -Ni 1 -Nx 500.00 -Ny 400.00 -Nz 0.00 -Ne -1.000000 -Nl MAC -Nw --- -Ma 0 -Md 0 -Ms 0 -Mt 0 
r -t 0.206113475 -Hs 1 -Hd -2 -Ni 1 -Nx 500.00 -Ny 400.00 -Nz 0.00 -Ne -1.000000 -Nl MAC -Nw --- -Ma 0 -Md 0 -Ms 0 -Mt 0 
s -t 0.211001698 -Hs 0 -Hd -2 -Ni 0 -Nx 300.00 -Ny 400.00 -Nz 0.00 -Ne -1.000000 -Nl MAC -Nw --- -Ma 0 -Md 0 -Ms 0 -Mt 0 
s -t 0.211057253 -Hs 0 -Hd -2 -Ni 0 -Nx 300.00 -Ny 400.00 -Nz 0.00 -Ne -1.000000 -Nl MAC -Nw --- -Ma 0 -Md 0 -Ms 0 -Mt 0 
r -t 0.211057919 -Hs 1 -Hd -2 -Ni 1 -Nx 500.00 -Ny 400.00 -Nz 0.00 -Ne -1.000000 -Nl MAC -Nw --- -Ma 0 -Md 0 -Ms 0 -Mt 0 
r -t 0.211113475 -Hs 1 -Hd -2 -Ni 1 -Nx 500.00 -Ny 400.00 -Nz 0.00 -Ne -1.000000 -Nl MAC -Nw --- -Ma 0 -Md 0 -Ms 0 -Mt 0 
s -t 0.216001698 -Hs 0 -Hd -2 -Ni 0 -Nx 300.00 -Ny 400.00 -Nz 0.00 -Ne -1.000000 -Nl MAC -Nw --- -Ma 0 -Md 0 -Ms 0 -Mt 0 
s -t 0.216057253 -Hs 0 -Hd -2 -Ni 0 -Nx 300.00 -Ny 400.00 -Nz 0.00 -Ne -1.000000 -Nl MAC -Nw --- -Ma 0 -Md 0 -Ms 0 -Mt 0 
r -t 0.216057919 -Hs 1 -Hd -2 -Ni 1 -Nx 500.00 -Ny 400.00 -Nz 0.00 -Ne -1.000000 -Nl MAC -Nw --- -Ma 0 -Md 0 -Ms 0 -Mt 0 
r -t 0.216113475 -Hs 1 -Hd -2 -Ni 1 -Nx 500.00 -Ny 400.00 -Nz 0.00 -Ne -1.000000 -Nl MAC -Nw --- -Ma 0 -Md 0 -Ms 0 -Mt 0 
s -t 0.221001698 -Hs 0 -Hd -2 -Ni 0 -Nx 300.00 -Ny 400.00 -Nz 0.00 -Ne -1.000000 -Nl MAC -Nw --- -Ma 0 -Md 0 -Ms 0 -Mt 0 
s -t 0.221057253 -Hs 0 -Hd -2 -Ni 0 -Nx 300.00 -Ny 400.00 -Nz 0.00 -Ne -1.000000 -Nl MAC -Nw --- -Ma 0 -Md 0 -Ms 0 -Mt 0 
r -t 0.221057919 -Hs 1 -Hd -2 -Ni 1 -Nx 500.00 -Ny 400.00 -Nz 0.00 -Ne -1.000000 -Nl MAC -Nw --- -Ma 0 -Md 0 -Ms 0 -Mt 0 
r -t 0.221113475 -Hs 1 -Hd -2 -Ni 1 -Nx 500.00 -Ny 400.00 -Nz 0.00 -Ne -1.000000 -Nl MAC -Nw --- -Ma 0 -Md 0 -Ms 0 -Mt 0 
s -t 0.226001698 -Hs 0 -Hd -2 -Ni 0 -Nx 300.00 -Ny 400.00 -Nz 0.00 -Ne -1.000000 -Nl MAC -Nw --- -Ma 0 -Md 0 -Ms 0 -Mt 0 
s -t 0.226057253 -Hs 0 -Hd -2 -Ni 0 -Nx 300.00 -Ny 400.00 -Nz 0.00 -Ne -1.000000 -Nl MAC -Nw --- -Ma 0 -Md 0 -Ms 0 -Mt 0 
r -t 0.226057919 -Hs 1 -Hd -2 -Ni 1 -Nx 500.00 -Ny 400.00 -Nz 0.00 -Ne -1.000000 -Nl MAC -Nw --- -Ma 0 -Md 0 -Ms 0 -Mt 0 
r -t 0.226113475 -Hs 1 -Hd -2 -Ni 1 -Nx 500.00 -Ny 400.00 -Nz 0.00 -Ne -1.000000 -Nl MAC -Nw --- -Ma 0 -Md 0 -Ms 0 -Mt 0 
s -t 0.231001698 -Hs 0 -Hd -2 -Ni 0 -Nx 300.00 -Ny 400.00 -Nz 0.00 -Ne -1.000000 -Nl MAC -Nw --- -Ma 0 -Md 0 -Ms 0 -Mt 0 
s -t 0.231057253 -Hs 0 -Hd -2 -Ni 0 -Nx 300.00 -Ny 400.00 -Nz 0.00 -Ne -1.000000 -Nl MAC -Nw --- -Ma 0 -Md 0 -Ms 0 -Mt 0 
r -t 0.231057919 -Hs 1 -Hd -2 -Ni 1 -Nx 500.00 -Ny 400.00 -Nz 0.00 -Ne -1.000000 -Nl MAC -Nw --- -Ma 0 -Md 0 -Ms 0 -Mt 0 
r -t 0.231113475 -Hs 1 -Hd -2 -Ni 1 -Nx 500.00 -Ny 400.00 -Nz 0.00 -Ne -1.000000 -Nl MAC -Nw --- -Ma 0 -Md 0 -Ms 0 -Mt 0 
s -t 0.236001698 -Hs 0 -Hd -2 -Ni 0 -Nx 300.00 -Ny 400.00 -Nz 0.00 -Ne -1.000000 -Nl MAC -Nw --- -Ma 0 -Md 0 -Ms 0 -Mt 0 
s -t 0.236057253 -Hs 0 -Hd -2 -Ni 0 -Nx 300.00 -Ny 400.00 -Nz 0.00 -Ne -1.000000 -Nl MAC -Nw --- -Ma 0 -Md 0 -Ms 0 -Mt 0 
r -t 0.236057919 -Hs 1 -Hd -2 -Ni 1 -Nx 500.00 -Ny 400.00 -Nz 0.00 -Ne -1.000000 -Nl MAC -Nw --- -Ma 0 -Md 0 -Ms 0 -Mt 0 
r -t 0.236113475 -Hs 1 -Hd -2 -Ni 1 -Nx 500.00 -Ny 400.00 -Nz 0.00 -Ne -1.000000 -Nl MAC -Nw --- -Ma 0 -Md 0 -Ms 0 -Mt 0 
s -t 0.241001698 -Hs 0 -Hd -2 -Ni 0 -Nx 300.00 -Ny 400.00 -Nz 0.00 -Ne -1.000000 -Nl MAC -Nw --- -Ma 0 -Md 0 -Ms 0 -Mt 0 
s -t 0.241057253 -Hs 0 -Hd -2 -Ni 0 -Nx 300.00 -Ny 400.00 -Nz 0.00 -Ne -1.000000 -Nl MAC -Nw --- -Ma 0 -Md 0 -Ms 0 -Mt 0 
r -t 0.241057919 -Hs 1 -Hd -2 -Ni 1 -Nx 500.00 -Ny 400.00 -Nz 0.00 -Ne -1.000000 -Nl MAC -Nw --- -Ma 0 -Md 0 -Ms 0 -Mt 0 
r -t 0.241113475 -Hs 1 -Hd -2 -Ni 1 -Nx 500.00 -Ny 400.00 -Nz 0.00 -Ne -1.000000 -Nl MAC -Nw --- -Ma 0 -Md 0 -Ms 0 -Mt 0 
s -t 0.246001698 -Hs 0 -Hd -2 -Ni 0 -Nx 300.00 -Ny 400.00 -Nz 0.00 -Ne -1.000000 -Nl MAC -Nw --- -Ma 0 -Md 0 -Ms 0 -Mt 0 
s -t 0.246057253 -Hs 0 -Hd -2 -Ni 0 -Nx 300.00 -Ny 400.00 -Nz 0.00 -Ne -1.000000 -Nl MAC -Nw --- -Ma 0 -Md 0 -Ms 0 -Mt 0 
r -t 0.246057919 -Hs 1 -Hd -2 -Ni 1 -Nx 500.00 -Ny 400.00 -Nz 0.00 -Ne -1.000000 -Nl MAC -Nw --- -Ma 0 -Md 0 -Ms 0 -Mt 0 
r -t 0.246113475 -Hs 1 -Hd -2 -Ni 1 -Nx 500.00 -Ny 400.00 -Nz 0.00 -Ne -1.000000 -Nl MAC -Nw --- -Ma 0 -Md 0 -Ms 0 -Mt 0 
s -t 0.251001698 -Hs 0 -Hd -2 -Ni 0 -Nx 300.00 -Ny 400.00 -Nz 0.00 -Ne -1.000000 -Nl MAC -Nw --- -Ma 0 -Md 0 -Ms 0 -Mt 0 
s -t 0.251057253 -Hs 0 -Hd -2 -Ni 0 -Nx 300.00 -Ny 400.00 -Nz 0.00 -Ne -1.000000 -Nl MAC -Nw --- -Ma 0 -Md 0 -Ms 0 -Mt 0 
r -t 0.251057919 -Hs 1 -Hd -2 -Ni 1 -Nx 500.00 -Ny 400.00 -Nz 0.00 -Ne -1.000000 -Nl MAC -Nw --- -Ma 0 -Md 0 -Ms 0 -Mt 0 
r -t 0.251113475 -Hs 1 -Hd -2 -Ni 1 -Nx 500.00 -Ny 400.00 -Nz 0.00 -Ne -1.000000 -Nl MAC -Nw --- -Ma 0 -Md 0 -Ms 0 -Mt 0 
s -t 0.256001698 -Hs 0 -Hd -2 -Ni 0 -Nx 300.00 -Ny 400.00 -Nz 0.00 -Ne -1.000000 -Nl MAC -Nw --- -Ma 0 -Md 0 -Ms 0 -Mt 0 
s -t 0.256057253 -Hs 0 -Hd -2 -Ni 0 -Nx 300.00 -Ny 400.00 -Nz 0.00 -Ne -1.000000 -Nl MAC -Nw --- -Ma 0 -Md 0 -Ms 0 -Mt 0 
r -t 0.256057919 -Hs 1 -Hd -2 -Ni 1 -Nx 500.00 -Ny 400.00 -Nz 0.00 -Ne -1.000000 -Nl MAC -Nw --- -Ma 0 -Md 0 -Ms 0 -Mt 0 
r -t 0.256113475 -Hs 1 -Hd -2 -Ni 1 -Nx 500.00 -Ny 400.00 -Nz 0.00 -Ne -1.000000 -Nl MAC -Nw --- -Ma 0 -Md 0 -Ms 0 -Mt 0 
s -t 0.261001698 -Hs 0 -Hd -2 -Ni 0 -Nx 300.00 -Ny 400.00 -Nz 0.00 -Ne -1.000000 -Nl MAC -Nw --- -Ma 0 -Md 0 -Ms 0 -Mt 0 
s -t 0.261057253 -Hs 0 -Hd -2 -Ni 0 -Nx 300.00 -Ny 400.00 -Nz 0.00 -Ne -1.000000 -Nl MAC -Nw --- -Ma 0 -Md 0 -Ms 0 -Mt 0 
r -t 0.261057919 -Hs 1 -Hd -2 -Ni 1 -Nx 500.00 -Ny 400.00 -Nz 0.00 -Ne -1.000000 -Nl MAC -Nw --- -Ma 0 -Md 0 -Ms 0 -Mt 0 
r -t 0.261113475 -Hs 1 -Hd -2 -Ni 1 -Nx 500.00 -Ny 400.00 -Nz 0.00 -Ne -1.000000 -Nl MAC -Nw --- -Ma 0 -Md 0 -Ms 0 -Mt 0 
s -t 0.266001698 -Hs 0 -Hd -2 -Ni 0 -Nx 300.00 -Ny 400.00 -Nz 0.00 -Ne -1.000000 -Nl MAC -Nw --- -Ma 0 -Md 0 -Ms 0 -Mt 0 
s -t 0.266057253 -Hs 0 -Hd -2 -Ni 0 -Nx 300.00 -Ny 400.00 -Nz 0.00 -Ne -1.000000 -Nl MAC -Nw --- -Ma 0 -Md 0 -Ms 0 -Mt 0 
r -t 0.266057919 -Hs 1 -Hd -2 -Ni 1 -Nx 500.00 -Ny 400.00 -Nz 0.00 -Ne -1.000000 -Nl MAC -Nw --- -Ma 0 -Md 0 -Ms 0 -Mt 0 
r -t 0.266113475 -Hs 1 -Hd -2 -Ni 1 -Nx 500.00 -Ny 400.00 -Nz 0.00 -Ne -1.000000 -Nl MAC -Nw --- -Ma 0 -Md 0 -Ms 0 -Mt 0 
s -t 0.271001698 -Hs 0 -Hd -2 -Ni 0 -Nx 300.00 -Ny 400.00 -Nz 0.00 -Ne -1.000000 -Nl MAC -Nw --- -Ma 0 -Md 0 -Ms 0 -Mt 0 
s -t 0.271057253 -Hs 0 -Hd -2 -Ni 0 -Nx 300.00 -Ny 400.00 -Nz 0.00 -Ne -1.000000 -Nl MAC -Nw --- -Ma 0 -Md 0 -Ms 0 -Mt 0 
r -t 0.271057919 -Hs 1 -Hd -2 -Ni 1 -Nx 500.00 -Ny 400.00 -Nz 0.00 -Ne -1.000000 -Nl MAC -Nw --- -Ma 0 -Md 0 -Ms 0 -Mt 0 
r -t 0.271113475 -Hs 1 -Hd -2 -Ni 1 -Nx 500.00 -Ny 400.00 -Nz 0.00 -Ne -1.000000 -Nl MAC -Nw --- -Ma 0 -Md 0 -Ms 0 -Mt 0 
s -t 0.276001698 -Hs 0 -Hd -2 -Ni 0 -Nx 300.00 -Ny 400.00 -Nz 0.00 -Ne -1.000000 -Nl MAC -Nw --- -Ma 0 -Md 0 -Ms 0 -Mt 0 
s -t 0.276057253 -Hs 0 -Hd -2 -Ni 0 -Nx 300.00 -Ny 400.00 -Nz 0.00 -Ne -1.000000 -Nl MAC -Nw --- -Ma 0 -Md 0 -Ms 0 -Mt 0 
r -t 0.276057919 -Hs 1 -Hd -2 -Ni 1 -Nx 500.00 -Ny 400.00 -Nz 0.00 -Ne -1.000000 -Nl MAC -Nw --- -Ma 0 -Md 0 -Ms 0 -Mt 0 
r -t 0.276113475 -Hs 1 -Hd -2 -Ni 1 -Nx 500.00 -Ny 400.00 -Nz 0.00 -Ne -1.000000 -Nl MAC -Nw --- -Ma 0 -Md 0 -Ms 0 -Mt 0 
s -t 0.281001698 -Hs 0 -Hd -2 -Ni 0 -Nx 300.00 -Ny 400.00 -Nz 0.00 -Ne -1.000000 -Nl MAC -Nw --- -Ma 0 -Md 0 -Ms 0 -Mt 0 