+ 0.5 0 1 tcp 40 ------- 0 0.0 1.0 0 0
- 0.5 0 1 tcp 40 ------- 0 0.0 1.0 0 0
r 0.50516 0 1 tcp 40 ------- 0 0.0 1.0 0 0
+ 0.50516 1 0 ack 40 ------- 0 1.0 0.0 0 1
- 0.50516 1 0 ack 40 ------- 0 1.0 0.0 0 1
r 0.51032 1 0 ack 40 ------- 0 1.0 0.0 0 1
+ 0.51032 0 1 tcp 40 ------- 0 0.0 1.0 1 2
- 0.51032 0 1 tcp 40 ------- 0 0.0 1.0 1 2
+ 0.51032 0 1 tcp 140 ------- 0 0.0 1.0 1 3
- 0.51048 0 1 tcp 140 ------- 0 0.0 1.0 1 3
r 0.51548 0 1 tcp 40 ------- 0 0.0 1.0 1 2
r 0.51604 0 1 tcp 140 ------- 0 0.0 1.0 1 3
v 0.51604000000000017 eval {set sim_annotation {_o41 received data "my mesage"}}
+ 0.6 1 0 ack 40 ------- 0 1.0 0.0 1 4
- 0.6 1 0 ack 40 ------- 0 1.0 0.0 1 4
r 0.60516 1 0 ack 40 ------- 0 1.0 0.0 1 4
